
     Program PWSCF v.7.1 starts on 16Oct2022 at 22: 3:39 

     This program is part of the open-source Quantum ESPRESSO suite
     for quantum simulation of materials; please cite
         "P. Giannozzi et al., J. Phys.:Condens. Matter 21 395502 (2009);
         "P. Giannozzi et al., J. Phys.:Condens. Matter 29 465901 (2017);
         "P. Giannozzi et al., J. Chem. Phys. 152 154105 (2020);
          URL http://www.quantum-espresso.org", 
     in publications or presentations arising from this work. More details at
     http://www.quantum-espresso.org/quote

     Parallel version (MPI & OpenMP), running on      16 processor cores
     Number of MPI processes:                16
     Threads/MPI process:                     1

     MPI processes distributed on     1 nodes
     496912 MiB available memory on the printing compute node when the environment starts
 
     Reading input from example.pwi
Warning: card &CELL ignored
Warning: card / ignored

     Current dimensions of program PWSCF are:
     Max number of different atomic species (ntypx) = 10
     Max number of k-points (npk) =  40000
     Max angular momentum in pseudopotentials (lmaxx) =  4

     **************************************************************************
     Initializing libbeef V0.1.2 with the BEEF-vdW functional.
     Citation: Wellendorff et al., PRB 85, 235149 (2012).
     **************************************************************************


     IMPORTANT: XC functional enforced from input :
     Exchange-correlation= BEEF-VDW
                           (   1   4  43  14   2   0   0)
     Any further DFT definition will be discarded
     Please, verify this is what you really want

     Message from routine setup:
     using ibrav=0 with symmetry is DISCOURAGED, use correct ibrav instead
 
     R & G space division:  proc/nbgrp/npool/nimage =      16
     Subspace diagonalization in iterative solution of the eigenvalue problem:
     a serial algorithm will be used

 
     Parallelization info
     --------------------
     sticks:   dense  smooth     PW     G-vecs:    dense   smooth      PW
     Min         212     212     57                39638    39638    5623
     Max         213     213     58                39655    39655    5646
     Sum        3403    3403    925               634331   634331   90135
 
     Using Slab Decomposition
 


     bravais-lattice index     =            0
     lattice parameter (alat)  =      14.3146  a.u.
     unit-cell volume          =   10101.6116 (a.u.)^3
     number of atoms/cell      =           30
     number of atomic types    =            3
     number of electrons       =       529.00
     number of Kohn-Sham states=          318
     kinetic-energy cutoff     =      60.0000  Ry
     charge density cutoff     =     240.0000  Ry
     scf convergence threshold =      1.0E-08
     mixing beta               =       0.7000
     number of iterations used =            8  local-TF  mixing
     Exchange-correlation= BEEF-VDW
                           (   1   4  43  14   2   0   0)

     GPU acceleration is ACTIVE.

     Message from routine print_cuda_info:
     High GPU oversubscription detected. Are you sure this is what you want?

     GPU used by master process:

        Device Number: 0
        Device name: NVIDIA A100-SXM4-40GB
        Compute capability : 80
        Ratio of single to double precision performance  : 2
        Memory Clock Rate (KHz): 1215000
        Memory Bus Width (bits): 5120
        Peak Memory Bandwidth (GB/s): ******

     celldm(1)=  14.314606  celldm(2)=   0.000000  celldm(3)=   0.000000
     celldm(4)=   0.000000  celldm(5)=   0.000000  celldm(6)=   0.000000

     crystal axes: (cart. coord. in units of alat)
               a(1) = (   1.000000   0.000000   0.000000 )  
               a(2) = (   0.500000   0.866025   0.000000 )  
               a(3) = (   0.000000   0.000000   3.976691 )  

     reciprocal axes: (cart. coord. in units 2 pi/alat)
               b(1) = (  1.000000 -0.577350  0.000000 )  
               b(2) = (  0.000000  1.154701  0.000000 )  
               b(3) = (  0.000000  0.000000  0.251465 )  


     PseudoPot. # 1 for Cu read from file:
     /lus/eagle/projects/catalysis_aesp/raymundohe/espresso/pseudo/Cu_ONCV_PBE-1.2.upf
     MD5 check sum: 80213f8971cc881d9b4c24e0a73cd931
     Pseudo is Norm-conserving, Zval = 19.0
     Generated using ONCVPSP code by D. R. Hamann
     Using radial grid of  602 points,  6 beta functions with: 
                l(1) =   0
                l(2) =   0
                l(3) =   1
                l(4) =   1
                l(5) =   2
                l(6) =   2

     PseudoPot. # 2 for C  read from file:
     /lus/eagle/projects/catalysis_aesp/raymundohe/espresso/pseudo/C_ONCV_PBE-1.2.upf
     MD5 check sum: 1a5f83a7b1f58d24996abe00ed223ac6
     Pseudo is Norm-conserving, Zval =  4.0
     Generated using ONCVPSP code by D. R. Hamann
     Using radial grid of  602 points,  4 beta functions with: 
                l(1) =   0
                l(2) =   0
                l(3) =   1
                l(4) =   1

     PseudoPot. # 3 for O  read from file:
     /lus/eagle/projects/catalysis_aesp/raymundohe/espresso/pseudo/O_ONCV_PBE-1.2.upf
     MD5 check sum: e36c48deb68f4e355fffe4602be2c42c
     Pseudo is Norm-conserving, Zval =  6.0
     Generated using ONCVPSP code by D. R. Hamann
     Using radial grid of  602 points,  4 beta functions with: 
                l(1) =   0
                l(2) =   0
                l(3) =   1
                l(4) =   1

     atomic species   valence    mass     pseudopotential
        Cu            19.00    63.54600     Cu( 1.00)
        C              4.00    12.01100     C ( 1.00)
        O              6.00    15.99900     O ( 1.00)

      2 Sym. Ops. (no inversion) found


                                    s                        frac. trans.

      isym =  1     identity                                     

 cryst.   s( 1) = (     1          0          0      )
                  (     0          1          0      )
                  (     0          0          1      )

 cart.    s( 1) = (  1.0000000 -0.0000000  0.0000000 )
                  (  0.0000000  1.0000000  0.0000000 )
                  (  0.0000000  0.0000000  1.0000000 )


      isym =  2     inv. 180 deg rotation - cart. axis [1,0,0]   

 cryst.   s( 2) = (    -1          0          0      )
                  (    -1          1          0      )
                  (     0          0          1      )

 cart.    s( 2) = ( -1.0000000  0.0000000  0.0000000 )
                  (  0.0000000  1.0000000  0.0000000 )
                  (  0.0000000  0.0000000  1.0000000 )


   Cartesian axes

     site n.     atom                  positions (alat units)
         1           Cu  tau(   1) = (   0.1666667   0.0962250   1.7161799  )
         2           Cu  tau(   2) = (   0.5000000   0.0962250   1.7161799  )
         3           Cu  tau(   3) = (   0.8333333   0.0962250   1.7161799  )
         4           Cu  tau(   4) = (   0.3333333   0.3849002   1.7161799  )
         5           Cu  tau(   5) = (   0.6666667   0.3849002   1.7161799  )
         6           Cu  tau(   6) = (   1.0000000   0.3849002   1.7161799  )
         7           Cu  tau(   7) = (   0.5000000   0.6735753   1.7161799  )
         8           Cu  tau(   8) = (   0.8333333   0.6735753   1.7161799  )
         9           Cu  tau(   9) = (   1.1666667   0.6735753   1.7161799  )
        10           Cu  tau(  10) = (  -0.0000000   0.1924501   1.9883455  )
        11           Cu  tau(  11) = (   0.3333333   0.1924501   1.9883455  )
        12           Cu  tau(  12) = (   0.6666667   0.1924501   1.9883455  )
        13           Cu  tau(  13) = (   0.1666667   0.4811252   1.9883455  )
        14           Cu  tau(  14) = (   0.5000000   0.4811252   1.9883455  )
        15           Cu  tau(  15) = (   0.8333333   0.4811252   1.9883455  )
        16           Cu  tau(  16) = (   0.3333333   0.7698004   1.9883455  )
        17           Cu  tau(  17) = (   0.6666667   0.7698004   1.9883455  )
        18           Cu  tau(  18) = (   1.0000000   0.7698004   1.9883455  )
        19           Cu  tau(  19) = (   0.0000000   0.0000000   2.2718273  )
        20           Cu  tau(  20) = (   0.3333392   0.0000067   2.2717540  )
        21           Cu  tau(  21) = (   0.6666608   0.0000067   2.2717540  )
        22           Cu  tau(  22) = (   0.1666754   0.2886769   2.2717540  )
        23           Cu  tau(  23) = (   0.5000000   0.2886751   2.2718230  )
        24           Cu  tau(  24) = (   0.8333246   0.2886769   2.2717540  )
        25           Cu  tau(  25) = (   0.3333362   0.5773418   2.2717540  )
        26           Cu  tau(  26) = (   0.6666638   0.5773418   2.2717540  )
        27           Cu  tau(  27) = (   1.0000000   0.5773503   2.2717668  )
        28           C   tau(  28) = (   0.0000000   0.0000000   2.7338758  )
        29           O   tau(  29) = (   0.1532169   0.0000000   2.7338758  )
        30           O   tau(  30) = (  -0.1532169   0.0000000   2.7338758  )

   Crystallographic axes

     site n.     atom                  positions (cryst. coord.)
         1           Cu  tau(   1) = (  0.1111111  0.1111111  0.4315598  )
         2           Cu  tau(   2) = (  0.4444444  0.1111111  0.4315598  )
         3           Cu  tau(   3) = (  0.7777778  0.1111111  0.4315598  )
         4           Cu  tau(   4) = (  0.1111111  0.4444444  0.4315598  )
         5           Cu  tau(   5) = (  0.4444444  0.4444444  0.4315598  )
         6           Cu  tau(   6) = (  0.7777778  0.4444444  0.4315598  )
         7           Cu  tau(   7) = (  0.1111111  0.7777778  0.4315598  )
         8           Cu  tau(   8) = (  0.4444444  0.7777778  0.4315598  )
         9           Cu  tau(   9) = (  0.7777778  0.7777778  0.4315598  )
        10           Cu  tau(  10) = ( -0.1111111  0.2222222  0.5000000  )
        11           Cu  tau(  11) = (  0.2222222  0.2222222  0.5000000  )
        12           Cu  tau(  12) = (  0.5555556  0.2222222  0.5000000  )
        13           Cu  tau(  13) = ( -0.1111111  0.5555556  0.5000000  )
        14           Cu  tau(  14) = (  0.2222222  0.5555556  0.5000000  )
        15           Cu  tau(  15) = (  0.5555556  0.5555556  0.5000000  )
        16           Cu  tau(  16) = ( -0.1111111  0.8888889  0.5000000  )
        17           Cu  tau(  17) = (  0.2222222  0.8888889  0.5000000  )
        18           Cu  tau(  18) = (  0.5555556  0.8888889  0.5000000  )
        19           Cu  tau(  19) = (  0.0000000  0.0000000  0.5712859  )
        20           Cu  tau(  20) = (  0.3333354  0.0000077  0.5712674  )
        21           Cu  tau(  21) = (  0.6666569  0.0000077  0.5712674  )
        22           Cu  tau(  22) = (  0.0000077  0.3333354  0.5712674  )
        23           Cu  tau(  23) = (  0.3333333  0.3333333  0.5712848  )
        24           Cu  tau(  24) = (  0.6666569  0.3333354  0.5712674  )
        25           Cu  tau(  25) = (  0.0000077  0.6666569  0.5712674  )
        26           Cu  tau(  26) = (  0.3333354  0.6666569  0.5712674  )
        27           Cu  tau(  27) = (  0.6666667  0.6666667  0.5712706  )
        28           C   tau(  28) = (  0.0000000  0.0000000  0.6874750  )
        29           O   tau(  29) = (  0.1532169  0.0000000  0.6874750  )
        30           O   tau(  30) = ( -0.1532169  0.0000000  0.6874750  )

     number of k points=     7  Marzari-Vanderbilt smearing, width (Ry)=  0.0100
                       cart. coord. in units 2pi/alat
        k(    1) = (   0.0000000   0.0000000   0.0000000), wk =   0.1250000
        k(    2) = (   0.0000000   0.2886751   0.0000000), wk =   0.2500000
        k(    3) = (   0.0000000  -0.5773503   0.0000000), wk =   0.1250000
        k(    4) = (   0.2500000  -0.7216878   0.0000000), wk =   0.5000000
        k(    5) = (  -0.2500000   0.1443376   0.0000000), wk =   0.5000000
        k(    6) = (   0.5000000  -0.2886751   0.0000000), wk =   0.2500000
        k(    7) = (  -0.5000000  -0.5773503   0.0000000), wk =   0.2500000

                       cryst. coord.
        k(    1) = (   0.0000000   0.0000000   0.0000000), wk =   0.1250000
        k(    2) = (   0.0000000   0.2500000   0.0000000), wk =   0.2500000
        k(    3) = (   0.0000000  -0.5000000   0.0000000), wk =   0.1250000
        k(    4) = (   0.2500000  -0.5000000   0.0000000), wk =   0.5000000
        k(    5) = (  -0.2500000  -0.0000000   0.0000000), wk =   0.5000000
        k(    6) = (   0.5000000   0.0000000   0.0000000), wk =   0.2500000
        k(    7) = (  -0.5000000  -0.7500000   0.0000000), wk =   0.2500000

     Dense  grid:   634331 G-vectors     FFT dimensions: (  72,  72, 288)

     Dynamical RAM for                 wfc:      24.04 MB

     Dynamical RAM for     wfc (w. buffer):     192.34 MB

     Dynamical RAM for           str. fact:       1.81 MB

     Dynamical RAM for           local pot:       0.00 MB

     Dynamical RAM for          nlocal pot:      38.56 MB

     Dynamical RAM for                qrad:       3.73 MB

     Dynamical RAM for          rho,v,vnew:       3.95 MB

     Dynamical RAM for               rhoin:       1.32 MB

     Dynamical RAM for            rho*nmix:       9.68 MB

     Dynamical RAM for           G-vectors:       2.57 MB

     Dynamical RAM for          h,s,v(r/c):      18.52 MB

     Dynamical RAM for          <psi|beta>:       2.47 MB

     Dynamical RAM for                 psi:      48.09 MB

     Dynamical RAM for                hpsi:      48.09 MB

     Dynamical RAM for      wfcinit/wfcrot:      50.40 MB

     Estimated static dynamical RAM per process >     250.27 MB

     Estimated max dynamical RAM per process >     377.11 MB

     Estimated total dynamical RAM >       5.89 GB

     Initial potential from superposition of free atoms

     starting charge     528.2719, renormalised to     529.0000

     negative rho (up, down):  5.749E-03 0.000E+00


     %%%%%%%%%%%%%%%%%%%%%%%%%%%%%%%%%%%%%%%%%%%%%%%%%%%%%%%%%%%%%%%%%%%%%%%%
     %                                                                      %
     % You are using vdW-DF, which was implemented by the Thonhauser group. %
     % Please cite the following two papers that made this development      %
     % possible and the two reviews that describe the various versions:     %
     %                                                                      %
     %   T. Thonhauser et al., PRL 115, 136402 (2015).                      %
     %   T. Thonhauser et al., PRB 76, 125112 (2007).                       %
     %   K. Berland et al., Rep. Prog. Phys. 78, 066501 (2015).             %
     %   D.C. Langreth et al., J. Phys.: Condens. Matter 21, 084203 (2009). %
     %                                                                      %
     % If you are calculating stress with vdW-DF, please also cite:         %
     %                                                                      %
     %   R. Sabatini et al., J. Phys.: Condens. Matter 24, 424209 (2012).   %
     %                                                                      %
     %%%%%%%%%%%%%%%%%%%%%%%%%%%%%%%%%%%%%%%%%%%%%%%%%%%%%%%%%%%%%%%%%%%%%%%%

     %%%%%%%%%%%%%%%%%%%%%%%%%%%%%%%%%%%%%%%%%%%%%%%%%%%%%%%%%%%%%%%%%%%%%%%%
     %                                                                      %
     %  vdW-DF NEWS:                                                        %
     %                                                                      %
     %  * vdW-DF3 is now available. DOI: 10.1021/acs.jctc.0c00471           %
     %    use with input_dft = 'vdW-DF3-opt1' or 'vdW-DF3-opt2'             %
     %                                                                      %
     %  * Unscreened and range-separated vdW-DF hybrid functionals          %
     %    DOI: 10.1063/1.4986522 and 10.1088/1361-648X/ac2ad2               %
     %    use with input_dft = 'vdW-DF-cx0' (etc) and 'vdW-DF-ahcx'         %
     %                                                                      %
     %%%%%%%%%%%%%%%%%%%%%%%%%%%%%%%%%%%%%%%%%%%%%%%%%%%%%%%%%%%%%%%%%%%%%%%%


     Carrying out vdW-DF run using the following parameters:
     Nqs    =  20  Npoints =  1024  r_max =  100.000
     q_mesh =  0.00001000  0.04494208  0.09755937  0.15916263
               0.23128650  0.31572767  0.41458969  0.53033537
               0.66584808  0.82450364  1.01025438  1.22772762
               1.48234092  1.78043706  2.12944203  2.53805004
               3.01644009  3.57652955  4.23227104  5.00000000


     -----------------------------------------------
     Non-local corr. energy    =       7.96666888 Ry
     -----------------------------------------------

     Starting wfcs are random

     total cpu time spent up to now is       12.4 secs

     per-process dynamical memory:  1517.0 Mb

     Self-consistent Calculation
[tb_dev] Currently allocated     3.05E+01 Mbytes, locked:    0 /  10
[tb_pin] Currently allocated     0.00E+00 Mbytes, locked:    0 /   0

     iteration #  1     ecut=    60.00 Ry     beta= 0.70
     Davidson diagonalization with overlap

---- Real-time Memory Report at c_bands before calling an iterative solver
          2167 MiB given to the printing process from OS
          1481 MiB allocation reported by mallinfo(arena+hblkhd)
        477430 MiB available memory on the node where the printing process lives
     GPU memory used/free/total (MiB): 16187 / 24348 / 40536
------------------
     ethr =  1.00E-02,  avg # of iterations = 17.0

     Threshold (ethr) on eigenvalues was too large:
     Diagonalizing with lowered threshold

     Davidson diagonalization with overlap

---- Real-time Memory Report at c_bands before calling an iterative solver
          2176 MiB given to the printing process from OS
          1481 MiB allocation reported by mallinfo(arena+hblkhd)
        477307 MiB available memory on the node where the printing process lives
     GPU memory used/free/total (MiB): 15877 / 24658 / 40536
------------------
     ethr =  5.39E-04,  avg # of iterations =  2.0

     negative rho (up, down):  1.057E-06 0.000E+00


     -----------------------------------------------
     Non-local corr. energy    =       8.04494985 Ry
     -----------------------------------------------


     total cpu time spent up to now is      189.5 secs

     total energy              =   -9968.19306221 Ry
     estimated scf accuracy    <       2.96369455 Ry

     End of self-consistent calculation

     convergence NOT achieved after   1 iterations: stopping

     Writing config to output data dir ./Cu_CO2.save/
 
     init_run     :     10.18s CPU     12.17s WALL (       1 calls)
     electrons    :    158.29s CPU    177.15s WALL (       1 calls)

     Called by init_run:
     wfcinit      :      7.04s CPU      8.78s WALL (       1 calls)
                                        8.78s GPU  (       1 calls)
     wfcinit:wfcr :      6.63s CPU      8.27s WALL (       7 calls)
                                        8.27s GPU  (       7 calls)
     potinit      :      2.22s CPU      2.39s WALL (       1 calls)
     hinit0       :      0.71s CPU      0.75s WALL (       1 calls)

     Called by electrons:
     c_bands      :    149.66s CPU    167.16s WALL (       2 calls)
     sum_band     :      6.09s CPU      7.07s WALL (       2 calls)
     v_of_rho     :      2.51s CPU      2.74s WALL (       2 calls)
     v_h          :      0.00s CPU      0.01s WALL (       2 calls)
     v_xc         :      2.51s CPU      2.73s WALL (       2 calls)
     mix_rho      :      2.07s CPU      2.36s WALL (       2 calls)
     vdW_kernel   :      1.37s CPU      1.38s WALL (       1 calls)

     Called by c_bands:
     init_us_2    :      0.31s CPU      0.53s WALL (      35 calls)
     init_us_2:gp :      0.31s CPU      0.53s WALL (      35 calls)
     cegterg      :    146.50s CPU    163.75s WALL (      14 calls)

     Called by sum_band:
     sum_band:wei :      0.01s CPU      0.01s WALL (       2 calls)
                                        0.01s GPU  (       2 calls)
     sum_band:loo :      6.07s CPU      7.04s WALL (       2 calls)
                                        7.04s GPU  (       2 calls)
     sum_band:buf :      0.31s CPU      0.35s WALL (      14 calls)
                                        0.25s GPU  (      14 calls)
     sum_band:ini :      0.12s CPU      0.56s WALL (      14 calls)
                                        0.56s GPU  (      14 calls)

     Called by *egterg:
     cdiaghg      :      6.00s CPU      6.98s WALL (     140 calls)
                                        6.72s GPU  (     140 calls)
     cegterg:over :      2.35s CPU      2.83s WALL (     133 calls)
     cegterg:upda :      1.36s CPU      1.36s WALL (     133 calls)
     cegterg:last :      1.70s CPU      1.71s WALL (     105 calls)
     h_psi        :     72.43s CPU     89.74s WALL (     154 calls)
                                       89.36s GPU  (     154 calls)
     g_psi        :      0.00s CPU      0.63s WALL (     133 calls)
                                        0.01s GPU  (     133 calls)

     Called by h_psi:
     h_psi:calbec :      2.32s CPU      2.96s WALL (     154 calls)
                                        2.28s GPU  (     154 calls)
     vloc_psi     :     67.48s CPU     84.47s WALL (     154 calls)
                                       84.09s GPU  (     154 calls)
     add_vuspsi   :      0.03s CPU      0.80s WALL (     154 calls)
                                        0.73s GPU  (     154 calls)

     General routines
     calbec       :      2.32s CPU      2.87s WALL (     154 calls)
     fft          :      1.14s CPU      1.32s WALL (     121 calls)
                                        0.48s GPU  (      14 calls)
     ffts         :      0.97s CPU      1.13s WALL (     651 calls)
     fftw         :     49.14s CPU     89.85s WALL (    4422 calls)
                                       57.16s GPU  (    4422 calls)
     davcio       :      0.00s CPU      0.00s WALL (       2 calls)
 
     Parallel routines
 
     PWSCF        :   2m48.84s CPU   3m 9.87s WALL

 
   This run was terminated on:  22: 6:49  16Oct2022            

