
     Program PWSCF v.7.1 starts on 12Oct2022 at 13:58:44 

     This program is part of the open-source Quantum ESPRESSO suite
     for quantum simulation of materials; please cite
         "P. Giannozzi et al., J. Phys.:Condens. Matter 21 395502 (2009);
         "P. Giannozzi et al., J. Phys.:Condens. Matter 29 465901 (2017);
         "P. Giannozzi et al., J. Chem. Phys. 152 154105 (2020);
          URL http://www.quantum-espresso.org", 
     in publications or presentations arising from this work. More details at
     http://www.quantum-espresso.org/quote

     Parallel version (MPI), running on     2 processors

     MPI processes distributed on     1 nodes
     1766 MiB available memory on the printing compute node when the environment starts

     Reading input from test_Cu_CO2.pwi
Warning: card &CELL ignored
Warning: card / ignored

     Current dimensions of program PWSCF are:
     Max number of different atomic species (ntypx) = 10
     Max number of k-points (npk) =  40000
     Max angular momentum in pseudopotentials (lmaxx) =  4

     **************************************************************************
     Initializing libbeef V0.1.2 with the BEEF-vdW functional.
     Citation: Wellendorff et al., PRB 85, 235149 (2012).
     **************************************************************************


     IMPORTANT: XC functional enforced from input :
     Exchange-correlation= BEEF-VDW
                           (   1   4  43  14   2   0   0)
     Any further DFT definition will be discarded
     Please, verify this is what you really want

     Message from routine setup:
     using ibrav=0 with symmetry is DISCOURAGED, use correct ibrav instead

     R & G space division:  proc/nbgrp/npool/nimage =       2
     Subspace diagonalization in iterative solution of the eigenvalue problem:
     a serial algorithm will be used


     Parallelization info
     --------------------
     sticks:   dense  smooth     PW     G-vecs:    dense   smooth      PW
     Min        1701    1701    462               317159   317159   45066
     Max        1702    1702    463               317172   317172   45069
     Sum        3403    3403    925               634331   634331   90135

     Using Slab Decomposition



     bravais-lattice index     =            0
     lattice parameter (alat)  =      14.3146  a.u.
     unit-cell volume          =   10101.6116 (a.u.)^3
     number of atoms/cell      =           30
     number of atomic types    =            3
     number of electrons       =       529.00
     number of Kohn-Sham states=          318
     kinetic-energy cutoff     =      60.0000  Ry
     charge density cutoff     =     240.0000  Ry
     scf convergence threshold =      1.0E-08
     mixing beta               =       0.7000
     number of iterations used =            8  local-TF  mixing
     Exchange-correlation= BEEF-VDW
                           (   1   4  43  14   2   0   0)

     celldm(1)=  14.314606  celldm(2)=   0.000000  celldm(3)=   0.000000
     celldm(4)=   0.000000  celldm(5)=   0.000000  celldm(6)=   0.000000

     crystal axes: (cart. coord. in units of alat)
               a(1) = (   1.000000   0.000000   0.000000 )  
               a(2) = (   0.500000   0.866025   0.000000 )  
               a(3) = (   0.000000   0.000000   3.976691 )  

     reciprocal axes: (cart. coord. in units 2 pi/alat)
               b(1) = (  1.000000 -0.577350  0.000000 )  
               b(2) = (  0.000000  1.154701  0.000000 )  
               b(3) = (  0.000000  0.000000  0.251465 )  


     PseudoPot. # 1 for Cu read from file:
     /home/rayhe/espresso/pseudo/Cu_ONCV_PBE-1.2.upf
     MD5 check sum: 80213f8971cc881d9b4c24e0a73cd931
     Pseudo is Norm-conserving, Zval = 19.0
     Generated using ONCVPSP code by D. R. Hamann
     Using radial grid of  602 points,  6 beta functions with: 
                l(1) =   0
                l(2) =   0
                l(3) =   1
                l(4) =   1
                l(5) =   2
                l(6) =   2

     PseudoPot. # 2 for C  read from file:
     /home/rayhe/espresso/pseudo/C_ONCV_PBE-1.2.upf
     MD5 check sum: 1a5f83a7b1f58d24996abe00ed223ac6
     Pseudo is Norm-conserving, Zval =  4.0
     Generated using ONCVPSP code by D. R. Hamann
     Using radial grid of  602 points,  4 beta functions with: 
                l(1) =   0
                l(2) =   0
                l(3) =   1
                l(4) =   1

     PseudoPot. # 3 for O  read from file:
     /home/rayhe/espresso/pseudo/O_ONCV_PBE-1.2.upf
     MD5 check sum: e36c48deb68f4e355fffe4602be2c42c
     Pseudo is Norm-conserving, Zval =  6.0
     Generated using ONCVPSP code by D. R. Hamann
     Using radial grid of  602 points,  4 beta functions with: 
                l(1) =   0
                l(2) =   0
                l(3) =   1
                l(4) =   1

     atomic species   valence    mass     pseudopotential
        Cu            19.00    63.54600     Cu( 1.00)
        C              4.00    12.01100     C ( 1.00)
        O              6.00    15.99900     O ( 1.00)

      2 Sym. Ops. (no inversion) found


                                    s                        frac. trans.

      isym =  1     identity                                     

 cryst.   s( 1) = (     1          0          0      )
                  (     0          1          0      )
                  (     0          0          1      )

 cart.    s( 1) = (  1.0000000  0.0000000  0.0000000 )
                  (  0.0000000  1.0000000  0.0000000 )
                  (  0.0000000  0.0000000  1.0000000 )


      isym =  2     inv. 180 deg rotation - cart. axis [1,0,0]   

 cryst.   s( 2) = (    -1          0          0      )
                  (    -1          1          0      )
                  (     0          0          1      )

 cart.    s( 2) = ( -1.0000000  0.0000000  0.0000000 )
                  (  0.0000000  1.0000000  0.0000000 )
                  (  0.0000000  0.0000000  1.0000000 )


   Cartesian axes

     site n.     atom                  positions (alat units)
         1           Cu  tau(   1) = (   0.1666667   0.0962250   1.7161799  )
         2           Cu  tau(   2) = (   0.5000000   0.0962250   1.7161799  )
         3           Cu  tau(   3) = (   0.8333333   0.0962250   1.7161799  )
         4           Cu  tau(   4) = (   0.3333333   0.3849002   1.7161799  )
         5           Cu  tau(   5) = (   0.6666667   0.3849002   1.7161799  )
         6           Cu  tau(   6) = (   1.0000000   0.3849002   1.7161799  )
         7           Cu  tau(   7) = (   0.5000000   0.6735753   1.7161799  )
         8           Cu  tau(   8) = (   0.8333333   0.6735753   1.7161799  )
         9           Cu  tau(   9) = (   1.1666667   0.6735753   1.7161799  )
        10           Cu  tau(  10) = (  -0.0000000   0.1924501   1.9883455  )
        11           Cu  tau(  11) = (   0.3333333   0.1924501   1.9883455  )
        12           Cu  tau(  12) = (   0.6666667   0.1924501   1.9883455  )
        13           Cu  tau(  13) = (   0.1666667   0.4811252   1.9883455  )
        14           Cu  tau(  14) = (   0.5000000   0.4811252   1.9883455  )
        15           Cu  tau(  15) = (   0.8333333   0.4811252   1.9883455  )
        16           Cu  tau(  16) = (   0.3333333   0.7698004   1.9883455  )
        17           Cu  tau(  17) = (   0.6666667   0.7698004   1.9883455  )
        18           Cu  tau(  18) = (   1.0000000   0.7698004   1.9883455  )
        19           Cu  tau(  19) = (   0.0000000   0.0000000   2.2718273  )
        20           Cu  tau(  20) = (   0.3333392   0.0000067   2.2717540  )
        21           Cu  tau(  21) = (   0.6666608   0.0000067   2.2717540  )
        22           Cu  tau(  22) = (   0.1666754   0.2886769   2.2717540  )
        23           Cu  tau(  23) = (   0.5000000   0.2886751   2.2718230  )
        24           Cu  tau(  24) = (   0.8333246   0.2886769   2.2717540  )
        25           Cu  tau(  25) = (   0.3333362   0.5773418   2.2717540  )
        26           Cu  tau(  26) = (   0.6666638   0.5773418   2.2717540  )
        27           Cu  tau(  27) = (   1.0000000   0.5773503   2.2717668  )
        28           C   tau(  28) = (   0.0000000   0.0000000   2.7338758  )
        29           O   tau(  29) = (   0.1532169   0.0000000   2.7338758  )
        30           O   tau(  30) = (  -0.1532169   0.0000000   2.7338758  )

   Crystallographic axes

     site n.     atom                  positions (cryst. coord.)
         1           Cu  tau(   1) = (  0.1111111  0.1111111  0.4315598  )
         2           Cu  tau(   2) = (  0.4444444  0.1111111  0.4315598  )
         3           Cu  tau(   3) = (  0.7777778  0.1111111  0.4315598  )
         4           Cu  tau(   4) = (  0.1111111  0.4444444  0.4315598  )
         5           Cu  tau(   5) = (  0.4444444  0.4444444  0.4315598  )
         6           Cu  tau(   6) = (  0.7777778  0.4444444  0.4315598  )
         7           Cu  tau(   7) = (  0.1111111  0.7777778  0.4315598  )
         8           Cu  tau(   8) = (  0.4444444  0.7777778  0.4315598  )
         9           Cu  tau(   9) = (  0.7777778  0.7777778  0.4315598  )
        10           Cu  tau(  10) = ( -0.1111111  0.2222222  0.5000000  )
        11           Cu  tau(  11) = (  0.2222222  0.2222222  0.5000000  )
        12           Cu  tau(  12) = (  0.5555556  0.2222222  0.5000000  )
        13           Cu  tau(  13) = ( -0.1111111  0.5555556  0.5000000  )
        14           Cu  tau(  14) = (  0.2222222  0.5555556  0.5000000  )
        15           Cu  tau(  15) = (  0.5555556  0.5555556  0.5000000  )
        16           Cu  tau(  16) = ( -0.1111111  0.8888889  0.5000000  )
        17           Cu  tau(  17) = (  0.2222222  0.8888889  0.5000000  )
        18           Cu  tau(  18) = (  0.5555556  0.8888889  0.5000000  )
        19           Cu  tau(  19) = (  0.0000000  0.0000000  0.5712859  )
        20           Cu  tau(  20) = (  0.3333354  0.0000077  0.5712674  )
        21           Cu  tau(  21) = (  0.6666569  0.0000077  0.5712674  )
        22           Cu  tau(  22) = (  0.0000077  0.3333354  0.5712674  )
        23           Cu  tau(  23) = (  0.3333333  0.3333333  0.5712848  )
        24           Cu  tau(  24) = (  0.6666569  0.3333354  0.5712674  )
        25           Cu  tau(  25) = (  0.0000077  0.6666569  0.5712674  )
        26           Cu  tau(  26) = (  0.3333354  0.6666569  0.5712674  )
        27           Cu  tau(  27) = (  0.6666667  0.6666667  0.5712706  )
        28           C   tau(  28) = (  0.0000000  0.0000000  0.6874750  )
        29           O   tau(  29) = (  0.1532169  0.0000000  0.6874750  )
        30           O   tau(  30) = ( -0.1532169  0.0000000  0.6874750  )

     number of k points=     7  Marzari-Vanderbilt smearing, width (Ry)=  0.0100
                       cart. coord. in units 2pi/alat
        k(    1) = (   0.0000000   0.0000000   0.0000000), wk =   0.1250000
        k(    2) = (   0.0000000   0.2886751   0.0000000), wk =   0.2500000
        k(    3) = (   0.0000000  -0.5773503   0.0000000), wk =   0.1250000
        k(    4) = (   0.2500000  -0.7216878   0.0000000), wk =   0.5000000
        k(    5) = (  -0.2500000   0.1443376   0.0000000), wk =   0.5000000
        k(    6) = (   0.5000000  -0.2886751   0.0000000), wk =   0.2500000
        k(    7) = (  -0.5000000  -0.5773503   0.0000000), wk =   0.2500000

                       cryst. coord.
        k(    1) = (   0.0000000   0.0000000   0.0000000), wk =   0.1250000
        k(    2) = (   0.0000000   0.2500000   0.0000000), wk =   0.2500000
        k(    3) = (   0.0000000  -0.5000000   0.0000000), wk =   0.1250000
        k(    4) = (   0.2500000  -0.5000000   0.0000000), wk =   0.5000000
        k(    5) = (  -0.2500000   0.0000000   0.0000000), wk =   0.5000000
        k(    6) = (   0.5000000   0.0000000   0.0000000), wk =   0.2500000
        k(    7) = (  -0.5000000  -0.7500000   0.0000000), wk =   0.2500000

     Dense  grid:   634331 G-vectors     FFT dimensions: (  72,  72, 288)

     Dynamical RAM for                 wfc:     192.34 MB

     Dynamical RAM for     wfc (w. buffer):    1538.76 MB

     Dynamical RAM for           str. fact:      14.52 MB

     Dynamical RAM for           local pot:       0.00 MB

     Dynamical RAM for          nlocal pot:     308.48 MB

     Dynamical RAM for                qrad:       3.73 MB

     Dynamical RAM for          rho,v,vnew:      31.60 MB

     Dynamical RAM for               rhoin:      10.53 MB

     Dynamical RAM for            rho*nmix:      77.43 MB

     Dynamical RAM for           G-vectors:      20.57 MB

     Dynamical RAM for          h,s,v(r/c):      18.52 MB

     Dynamical RAM for          <psi|beta>:       2.47 MB

     Dynamical RAM for                 psi:     384.69 MB

     Dynamical RAM for                hpsi:     384.69 MB

     Dynamical RAM for      wfcinit/wfcrot:     387.01 MB

     Estimated static dynamical RAM per process >       1.93 GB

     Estimated max dynamical RAM per process >       2.78 GB

     Estimated total dynamical RAM >       5.55 GB

     Initial potential from superposition of free atoms

     starting charge     528.2719, renormalised to     529.0000

     negative rho (up, down):  5.749E-03 0.000E+00


     %%%%%%%%%%%%%%%%%%%%%%%%%%%%%%%%%%%%%%%%%%%%%%%%%%%%%%%%%%%%%%%%%%%%%%%%
     %                                                                      %
     % You are using vdW-DF, which was implemented by the Thonhauser group. %
     % Please cite the following two papers that made this development      %
     % possible and the two reviews that describe the various versions:     %
     %                                                                      %
     %   T. Thonhauser et al., PRL 115, 136402 (2015).                      %
     %   T. Thonhauser et al., PRB 76, 125112 (2007).                       %
     %   K. Berland et al., Rep. Prog. Phys. 78, 066501 (2015).             %
     %   D.C. Langreth et al., J. Phys.: Condens. Matter 21, 084203 (2009). %
     %                                                                      %
     % If you are calculating stress with vdW-DF, please also cite:         %
     %                                                                      %
     %   R. Sabatini et al., J. Phys.: Condens. Matter 24, 424209 (2012).   %
     %                                                                      %
     %%%%%%%%%%%%%%%%%%%%%%%%%%%%%%%%%%%%%%%%%%%%%%%%%%%%%%%%%%%%%%%%%%%%%%%%

     %%%%%%%%%%%%%%%%%%%%%%%%%%%%%%%%%%%%%%%%%%%%%%%%%%%%%%%%%%%%%%%%%%%%%%%%
     %                                                                      %
     %  vdW-DF NEWS:                                                        %
     %                                                                      %
     %  * vdW-DF3 is now available. DOI: 10.1021/acs.jctc.0c00471           %
     %    use with input_dft = 'vdW-DF3-opt1' or 'vdW-DF3-opt2'             %
     %                                                                      %
     %  * Unscreened and range-separated vdW-DF hybrid functionals          %
     %    DOI: 10.1063/1.4986522 and 10.1088/1361-648X/ac2ad2               %
     %    use with input_dft = 'vdW-DF-cx0' (etc) and 'vdW-DF-ahcx'         %
     %                                                                      %
     %%%%%%%%%%%%%%%%%%%%%%%%%%%%%%%%%%%%%%%%%%%%%%%%%%%%%%%%%%%%%%%%%%%%%%%%


     Carrying out vdW-DF run using the following parameters:
     Nqs    =  20  Npoints =  1024  r_max =  100.000
     q_mesh =  0.00001000  0.04494208  0.09755937  0.15916263
               0.23128650  0.31572767  0.41458969  0.53033537
               0.66584808  0.82450364  1.01025438  1.22772762
               1.48234092  1.78043706  2.12944203  2.53805004
               3.01644009  3.57652955  4.23227104  5.00000000


     -----------------------------------------------
     Non-local corr. energy    =       7.96666889 Ry
     -----------------------------------------------

     Starting wfcs are random

     total cpu time spent up to now is      131.2 secs

     Self-consistent Calculation

     iteration #  1     ecut=    60.00 Ry     beta= 0.70
     Davidson diagonalization with overlap

---- Real-time Memory Report at c_bands before calling an iterative solver
          2221 MiB given to the printing process from OS
             0 MiB allocation reported by mallinfo(arena+hblkhd)
           750 MiB available memory on the node where the printing process lives
------------------
     ethr =  1.00E-02,  avg # of iterations = 17.0

     Threshold (ethr) on eigenvalues was too large:
     Diagonalizing with lowered threshold

     Davidson diagonalization with overlap

---- Real-time Memory Report at c_bands before calling an iterative solver
          2817 MiB given to the printing process from OS
             0 MiB allocation reported by mallinfo(arena+hblkhd)
          2080 MiB available memory on the node where the printing process lives
------------------
     ethr =  5.39E-04,  avg # of iterations =  2.0

     negative rho (up, down):  1.061E-06 0.000E+00


     -----------------------------------------------
     Non-local corr. energy    =       8.04498892 Ry
     -----------------------------------------------


     total cpu time spent up to now is     2044.2 secs

     total energy              =   -9968.19288146 Ry
     estimated scf accuracy    <       2.96484459 Ry

     iteration #  2     ecut=    60.00 Ry     beta= 0.70
     Davidson diagonalization with overlap

---- Real-time Memory Report at c_bands before calling an iterative solver
          2817 MiB given to the printing process from OS
             0 MiB allocation reported by mallinfo(arena+hblkhd)
          1876 MiB available memory on the node where the printing process lives
------------------
     ethr =  5.60E-04,  avg # of iterations =  2.0


     -----------------------------------------------
     Non-local corr. energy    =       8.05594133 Ry
     -----------------------------------------------


     total cpu time spent up to now is     2355.5 secs

     total energy              =   -9968.36789318 Ry
     estimated scf accuracy    <       0.50849889 Ry

     iteration #  3     ecut=    60.00 Ry     beta= 0.70
     Davidson diagonalization with overlap

---- Real-time Memory Report at c_bands before calling an iterative solver
          2875 MiB given to the printing process from OS
             0 MiB allocation reported by mallinfo(arena+hblkhd)
          1952 MiB available memory on the node where the printing process lives
------------------
     ethr =  9.61E-05,  avg # of iterations =  8.9


     -----------------------------------------------
     Non-local corr. energy    =       8.05434480 Ry
     -----------------------------------------------


     total cpu time spent up to now is     2676.3 secs

     total energy              =   -9968.36208163 Ry
     estimated scf accuracy    <       0.13371467 Ry

     iteration #  4     ecut=    60.00 Ry     beta= 0.70
     Davidson diagonalization with overlap

---- Real-time Memory Report at c_bands before calling an iterative solver
          2885 MiB given to the printing process from OS
             0 MiB allocation reported by mallinfo(arena+hblkhd)
          2015 MiB available memory on the node where the printing process lives
------------------
     ethr =  2.53E-05,  avg # of iterations =  5.0


     -----------------------------------------------
     Non-local corr. energy    =       8.05921224 Ry
     -----------------------------------------------


     total cpu time spent up to now is     2989.7 secs

     total energy              =   -9968.36378960 Ry
     estimated scf accuracy    <       0.03483806 Ry

     iteration #  5     ecut=    60.00 Ry     beta= 0.70
     Davidson diagonalization with overlap

---- Real-time Memory Report at c_bands before calling an iterative solver
          2895 MiB given to the printing process from OS
             0 MiB allocation reported by mallinfo(arena+hblkhd)
          1981 MiB available memory on the node where the printing process lives
------------------
     ethr =  6.59E-06,  avg # of iterations =  9.9


     -----------------------------------------------
     Non-local corr. energy    =       8.06607237 Ry
     -----------------------------------------------


     total cpu time spent up to now is     3339.4 secs

     total energy              =   -9968.34840986 Ry
     estimated scf accuracy    <       0.02284704 Ry

     iteration #  6     ecut=    60.00 Ry     beta= 0.70
     Davidson diagonalization with overlap

---- Real-time Memory Report at c_bands before calling an iterative solver
          2904 MiB given to the printing process from OS
             0 MiB allocation reported by mallinfo(arena+hblkhd)
          1913 MiB available memory on the node where the printing process lives
------------------
     ethr =  4.32E-06,  avg # of iterations =  9.7

     negative rho (up, down):  6.583E-03 0.000E+00


     -----------------------------------------------
     Non-local corr. energy    =       8.07097456 Ry
     -----------------------------------------------


     total cpu time spent up to now is     3738.5 secs

     total energy              =   -9968.32897785 Ry
     estimated scf accuracy    <       0.01396855 Ry

     iteration #  7     ecut=    60.00 Ry     beta= 0.70
     Davidson diagonalization with overlap

---- Real-time Memory Report at c_bands before calling an iterative solver
          2914 MiB given to the printing process from OS
             0 MiB allocation reported by mallinfo(arena+hblkhd)
          1281 MiB available memory on the node where the printing process lives
------------------
     c_bands:  2 eigenvalues not converged
     ethr =  2.64E-06,  avg # of iterations = 13.1


     -----------------------------------------------
     Non-local corr. energy    =       8.06872944 Ry
     -----------------------------------------------


     total cpu time spent up to now is     4208.5 secs

     total energy              =   -9967.13452273 Ry
     estimated scf accuracy    <       2.84100413 Ry

     iteration #  8     ecut=    60.00 Ry     beta= 0.70
     Davidson diagonalization with overlap

---- Real-time Memory Report at c_bands before calling an iterative solver
          2923 MiB given to the printing process from OS
             0 MiB allocation reported by mallinfo(arena+hblkhd)
          1984 MiB available memory on the node where the printing process lives
------------------
     c_bands:  2 eigenvalues not converged
     c_bands:  1 eigenvalues not converged
     c_bands:  1 eigenvalues not converged
     c_bands:  1 eigenvalues not converged
     ethr =  2.64E-06,  avg # of iterations = 18.7

     negative rho (up, down):  3.003E-02 0.000E+00


     -----------------------------------------------
     Non-local corr. energy    =       8.06604761 Ry
     -----------------------------------------------


     total cpu time spent up to now is     4737.3 secs

     total energy              =   -9968.34956983 Ry
     estimated scf accuracy    <       0.01079680 Ry

     iteration #  9     ecut=    60.00 Ry     beta= 0.70
     Davidson diagonalization with overlap

---- Real-time Memory Report at c_bands before calling an iterative solver
          2932 MiB given to the printing process from OS
             0 MiB allocation reported by mallinfo(arena+hblkhd)
          2222 MiB available memory on the node where the printing process lives
------------------
     ethr =  2.04E-06,  avg # of iterations = 13.9

     negative rho (up, down):  2.337E-02 0.000E+00


     -----------------------------------------------
     Non-local corr. energy    =       8.06258496 Ry
     -----------------------------------------------


     total cpu time spent up to now is     5215.5 secs

     total energy              =   -9968.35260942 Ry
     estimated scf accuracy    <       0.00629438 Ry

     iteration # 10     ecut=    60.00 Ry     beta= 0.70
     Davidson diagonalization with overlap

---- Real-time Memory Report at c_bands before calling an iterative solver
          2942 MiB given to the printing process from OS
             0 MiB allocation reported by mallinfo(arena+hblkhd)
          1958 MiB available memory on the node where the printing process lives
------------------
     c_bands:  1 eigenvalues not converged
     c_bands:  1 eigenvalues not converged
     ethr =  1.19E-06,  avg # of iterations = 16.7

     negative rho (up, down):  8.379E-03 0.000E+00


     -----------------------------------------------
     Non-local corr. energy    =       8.06054051 Ry
     -----------------------------------------------


     total cpu time spent up to now is     5710.2 secs

     total energy              =   -9968.35178479 Ry
     estimated scf accuracy    <       0.00569111 Ry

     iteration # 11     ecut=    60.00 Ry     beta= 0.70
     Davidson diagonalization with overlap

---- Real-time Memory Report at c_bands before calling an iterative solver
          2950 MiB given to the printing process from OS
             0 MiB allocation reported by mallinfo(arena+hblkhd)
          1786 MiB available memory on the node where the printing process lives
------------------
     ethr =  1.08E-06,  avg # of iterations = 12.4

     negative rho (up, down):  2.138E-04 0.000E+00


     -----------------------------------------------
     Non-local corr. energy    =       8.06113811 Ry
     -----------------------------------------------


     total cpu time spent up to now is     6153.2 secs

     total energy              =   -9968.35123645 Ry
     estimated scf accuracy    <       0.00382503 Ry

     iteration # 12     ecut=    60.00 Ry     beta= 0.70
     Davidson diagonalization with overlap

---- Real-time Memory Report at c_bands before calling an iterative solver
          2950 MiB given to the printing process from OS
             0 MiB allocation reported by mallinfo(arena+hblkhd)
          2413 MiB available memory on the node where the printing process lives
------------------
     ethr =  7.23E-07,  avg # of iterations = 10.0


     -----------------------------------------------
     Non-local corr. energy    =       8.06136126 Ry
     -----------------------------------------------


     total cpu time spent up to now is     6562.6 secs

     total energy              =   -9968.35099488 Ry
     estimated scf accuracy    <       0.00406244 Ry

     iteration # 13     ecut=    60.00 Ry     beta= 0.70
     Davidson diagonalization with overlap

---- Real-time Memory Report at c_bands before calling an iterative solver
          2950 MiB given to the printing process from OS
             0 MiB allocation reported by mallinfo(arena+hblkhd)
          2072 MiB available memory on the node where the printing process lives
------------------
     ethr =  7.23E-07,  avg # of iterations = 12.4


     -----------------------------------------------
     Non-local corr. energy    =       8.06123008 Ry
     -----------------------------------------------


     total cpu time spent up to now is     7026.1 secs

     total energy              =   -9968.35108305 Ry
     estimated scf accuracy    <       0.00397351 Ry

     iteration # 14     ecut=    60.00 Ry     beta= 0.70
     Davidson diagonalization with overlap

---- Real-time Memory Report at c_bands before calling an iterative solver
          2950 MiB given to the printing process from OS
             0 MiB allocation reported by mallinfo(arena+hblkhd)
          2281 MiB available memory on the node where the printing process lives
------------------
     ethr =  7.23E-07,  avg # of iterations = 10.9


     -----------------------------------------------
     Non-local corr. energy    =       8.06140405 Ry
     -----------------------------------------------


     total cpu time spent up to now is     7418.8 secs

     total energy              =   -9968.35107044 Ry
     estimated scf accuracy    <       0.00400830 Ry

     iteration # 15     ecut=    60.00 Ry     beta= 0.70
     Davidson diagonalization with overlap

---- Real-time Memory Report at c_bands before calling an iterative solver
          2950 MiB given to the printing process from OS
             0 MiB allocation reported by mallinfo(arena+hblkhd)
          1913 MiB available memory on the node where the printing process lives
------------------
     ethr =  7.23E-07,  avg # of iterations =  8.6


     -----------------------------------------------
     Non-local corr. energy    =       8.06142909 Ry
     -----------------------------------------------


     total cpu time spent up to now is     7851.2 secs

     total energy              =   -9968.35103831 Ry
     estimated scf accuracy    <       0.00396228 Ry

     iteration # 16     ecut=    60.00 Ry     beta= 0.70
     Davidson diagonalization with overlap

---- Real-time Memory Report at c_bands before calling an iterative solver
          2950 MiB given to the printing process from OS
             0 MiB allocation reported by mallinfo(arena+hblkhd)
          1936 MiB available memory on the node where the printing process lives
------------------
     ethr =  7.23E-07,  avg # of iterations =  8.9

     negative rho (up, down):  1.707E-02 0.000E+00


     -----------------------------------------------
     Non-local corr. energy    =       8.05901540 Ry
     -----------------------------------------------


     total cpu time spent up to now is     8174.3 secs

     total energy              =   -9968.34989709 Ry
     estimated scf accuracy    <       0.00388002 Ry

     iteration # 17     ecut=    60.00 Ry     beta= 0.70
     Davidson diagonalization with overlap

---- Real-time Memory Report at c_bands before calling an iterative solver
          2950 MiB given to the printing process from OS
             0 MiB allocation reported by mallinfo(arena+hblkhd)
          1930 MiB available memory on the node where the printing process lives
------------------
     ethr =  7.23E-07,  avg # of iterations = 10.3

     negative rho (up, down):  1.153E-02 0.000E+00


     -----------------------------------------------
     Non-local corr. energy    =       8.06292358 Ry
     -----------------------------------------------


     total cpu time spent up to now is     8516.3 secs

     total energy              =   -9968.34966692 Ry
     estimated scf accuracy    <       0.00089232 Ry

     iteration # 18     ecut=    60.00 Ry     beta= 0.70
     Davidson diagonalization with overlap

---- Real-time Memory Report at c_bands before calling an iterative solver
          2950 MiB given to the printing process from OS
             0 MiB allocation reported by mallinfo(arena+hblkhd)
          1913 MiB available memory on the node where the printing process lives
------------------
     ethr =  1.69E-07,  avg # of iterations = 13.1

     negative rho (up, down):  6.831E-03 0.000E+00


     -----------------------------------------------
     Non-local corr. energy    =       8.05937761 Ry
     -----------------------------------------------


     total cpu time spent up to now is     8975.5 secs

     total energy              =   -9968.34984217 Ry
     estimated scf accuracy    <       0.00099439 Ry

     iteration # 19     ecut=    60.00 Ry     beta= 0.70
     Davidson diagonalization with overlap

---- Real-time Memory Report at c_bands before calling an iterative solver
          2950 MiB given to the printing process from OS
             0 MiB allocation reported by mallinfo(arena+hblkhd)
          1335 MiB available memory on the node where the printing process lives
------------------
     ethr =  1.69E-07,  avg # of iterations = 13.1

     negative rho (up, down):  3.820E-03 0.000E+00


     -----------------------------------------------
     Non-local corr. energy    =       8.06011620 Ry
     -----------------------------------------------


     total cpu time spent up to now is     9412.1 secs

     total energy              =   -9968.35005124 Ry
     estimated scf accuracy    <       0.00008714 Ry

     iteration # 20     ecut=    60.00 Ry     beta= 0.70
     Davidson diagonalization with overlap

---- Real-time Memory Report at c_bands before calling an iterative solver
          2950 MiB given to the printing process from OS
             0 MiB allocation reported by mallinfo(arena+hblkhd)
          1816 MiB available memory on the node where the printing process lives
------------------
     ethr =  1.65E-08,  avg # of iterations =  8.7

     negative rho (up, down):  9.406E-04 0.000E+00


     -----------------------------------------------
     Non-local corr. energy    =       8.06026426 Ry
     -----------------------------------------------


     total cpu time spent up to now is     9838.4 secs

     total energy              =   -9968.35004787 Ry
     estimated scf accuracy    <       0.00000539 Ry

     iteration # 21     ecut=    60.00 Ry     beta= 0.70
     Davidson diagonalization with overlap

---- Real-time Memory Report at c_bands before calling an iterative solver
          2950 MiB given to the printing process from OS
             0 MiB allocation reported by mallinfo(arena+hblkhd)
          1964 MiB available memory on the node where the printing process lives
------------------
     ethr =  1.02E-09,  avg # of iterations =  9.9

     negative rho (up, down):  7.202E-06 0.000E+00


     -----------------------------------------------
     Non-local corr. energy    =       8.06015473 Ry
     -----------------------------------------------


     total cpu time spent up to now is    10270.9 secs

     total energy              =   -9968.35004016 Ry
     estimated scf accuracy    <       0.00000296 Ry

     iteration # 22     ecut=    60.00 Ry     beta= 0.70
     Davidson diagonalization with overlap

---- Real-time Memory Report at c_bands before calling an iterative solver
          2950 MiB given to the printing process from OS
             0 MiB allocation reported by mallinfo(arena+hblkhd)
          1895 MiB available memory on the node where the printing process lives
------------------
     ethr =  5.60E-10,  avg # of iterations =  9.9


     -----------------------------------------------
     Non-local corr. energy    =       8.06018156 Ry
     -----------------------------------------------


     total cpu time spent up to now is    10725.9 secs

     total energy              =   -9968.35004277 Ry
     estimated scf accuracy    <       0.00000026 Ry

     iteration # 23     ecut=    60.00 Ry     beta= 0.70
     Davidson diagonalization with overlap

---- Real-time Memory Report at c_bands before calling an iterative solver
          2950 MiB given to the printing process from OS
             0 MiB allocation reported by mallinfo(arena+hblkhd)
          1451 MiB available memory on the node where the printing process lives
------------------
     ethr =  4.97E-11,  avg # of iterations =  7.4


     -----------------------------------------------
     Non-local corr. energy    =       8.06019182 Ry
     -----------------------------------------------


     total cpu time spent up to now is    11133.1 secs

     total energy              =   -9968.35004261 Ry
     estimated scf accuracy    <       0.00000006 Ry

     iteration # 24     ecut=    60.00 Ry     beta= 0.70
     Davidson diagonalization with overlap

---- Real-time Memory Report at c_bands before calling an iterative solver
          2950 MiB given to the printing process from OS
             0 MiB allocation reported by mallinfo(arena+hblkhd)
          2140 MiB available memory on the node where the printing process lives
------------------
     ethr =  1.05E-11,  avg # of iterations =  3.4


     -----------------------------------------------
     Non-local corr. energy    =       8.06019347 Ry
     -----------------------------------------------


     total cpu time spent up to now is    11625.9 secs

     total energy              =   -9968.35004268 Ry
     estimated scf accuracy    <       0.00000001 Ry

     iteration # 25     ecut=    60.00 Ry     beta= 0.70
     Davidson diagonalization with overlap

---- Real-time Memory Report at c_bands before calling an iterative solver
          2950 MiB given to the printing process from OS
             0 MiB allocation reported by mallinfo(arena+hblkhd)
          1903 MiB available memory on the node where the printing process lives
------------------
     ethr =  2.33E-12,  avg # of iterations =  4.7


     -----------------------------------------------
     Non-local corr. energy    =       8.06018743 Ry
     -----------------------------------------------


     total cpu time spent up to now is    12034.3 secs

     End of self-consistent calculation

          k = 0.0000 0.0000 0.0000 ( 79407 PWs)   bands (ev):

  -113.1349-113.1278-113.1273-113.1272-113.1264-113.1264-113.1249-113.1227
  -113.1218-112.8475-112.8413-112.8395-112.8394-112.8385-112.8385-112.8384
  -112.8350-112.8348-112.7749-112.7656-112.7615-112.7614-112.7596-112.7580
  -112.7564-112.7544-112.7538 -70.5682 -70.5677 -70.5675 -70.5672 -70.5666
   -70.5666 -70.5631 -70.5630 -70.5626 -70.5624 -70.5161 -70.5161 -70.5157
   -70.5155 -70.5151 -70.5149 -70.5147 -70.5067 -70.5060 -70.5059 -70.5050
   -70.5050 -70.5032 -70.5004 -70.4994 -70.4981 -70.4981 -70.2888 -70.2886
   -70.2876 -70.2874 -70.2871 -70.2869 -70.2839 -70.2838 -70.2829 -70.2828
   -70.2383 -70.2382 -70.2376 -70.2370 -70.2370 -70.2367 -70.2203 -70.2202
   -70.2171 -70.2165 -70.2114 -70.2107 -70.2094 -70.2091 -70.2063 -70.2059
   -70.2057 -70.2048 -70.1935 -70.1887 -70.1866 -70.1865 -70.1855 -70.1854
   -70.1853 -70.1826 -70.1823 -70.1636 -70.1635 -70.1602 -70.1598 -70.1583
   -70.1578 -70.1430 -70.1427 -70.1175 -70.1045 -70.1006 -70.1006 -70.0987
   -70.0967 -70.0952 -70.0933 -70.0928 -24.6213 -23.6711  -9.1390  -8.6339
    -8.1031  -8.0786  -8.0785  -6.6630  -5.6960  -5.6954  -5.6953  -5.6952
    -5.6951  -5.6947  -5.3602  -4.7817  -4.7800  -4.7796  -4.7792  -4.7789
    -4.7785  -4.4616  -4.4382  -4.3436  -4.3432  -4.3426  -4.3426  -4.3424
    -4.3398  -4.1264  -4.1263  -4.0448  -4.0446  -4.0099  -4.0094  -4.0092
    -4.0088  -4.0082  -4.0058  -3.9833  -3.9833  -3.9209  -3.9207  -3.8201
    -3.8195  -3.5837  -3.5827  -3.5821  -3.5819  -3.5818  -3.5815  -3.3249
    -3.2978  -3.2974  -3.2967  -3.2966  -3.2962  -3.2959  -3.2750  -3.2750
    -3.2306  -3.2304  -3.1511  -3.0331  -3.0330  -3.0145  -3.0145  -3.0017
    -3.0005  -2.9992  -2.9985  -2.9981  -2.9970  -2.9909  -2.9908  -2.9608
    -2.9596  -2.9092  -2.9077  -2.8913  -2.8912  -2.8908  -2.8903  -2.8901
    -2.8899  -2.8654  -2.8654  -2.6523  -2.6489  -2.6469  -2.6465  -2.6460
    -2.6442  -2.4534  -2.4534  -2.4295  -2.4290  -2.4027  -2.4019  -2.4001
    -2.3996  -2.3995  -2.3992  -2.3810  -2.3810  -2.3666  -2.3666  -2.3657
    -2.3654  -2.3650  -2.3649  -2.1857  -2.1824  -2.1823  -2.1813  -2.1806
    -2.1805  -2.1187  -2.1186  -2.1169  -2.1166  -2.1161  -2.1157  -2.0180
    -2.0180  -1.9901  -1.9896  -1.9890  -1.9889  -1.9884  -1.9884  -1.9812
    -1.9807  -1.9607  -1.9572  -1.9558  -1.9556  -1.9182  -1.9181  -1.9165
    -1.9158  -1.9154  -1.9153  -1.8515  -1.8514  -1.8338  -1.8334  -1.8324
    -1.8321  -1.8317  -1.8316  -1.6045  -1.3564  -1.3549  -1.3481  -1.3471
    -1.3463  -1.3401  -0.1223   1.3218   1.3301   1.3419   1.3453   1.3466
     1.3654   3.3142   3.9236   3.9243   3.9391   3.9421   4.0201   4.1748
     4.2045   4.4009   4.4020   4.4949   4.5052   4.5077   4.6006   4.6010
     4.6493   4.7290   5.0466   5.0467   5.1024   5.3981   6.1725   6.3406
     6.3528   6.3757   6.4014   6.4039   6.6331   6.7128   6.7175   6.7193
     6.8125   7.0410   7.2588   7.3170   7.4253   7.4506   7.5570   7.5804
     7.8864   7.8891   7.9403   7.9610   7.9699   7.9793

     occupation numbers 
     1.0000   1.0000   1.0000   1.0000   1.0000   1.0000   1.0000   1.0000
     1.0000   1.0000   1.0000   1.0000   1.0000   1.0000   1.0000   1.0000
     1.0000   1.0000   1.0000   1.0000   1.0000   1.0000   1.0000   1.0000
     1.0000   1.0000   1.0000   1.0000   1.0000   1.0000   1.0000   1.0000
     1.0000   1.0000   1.0000   1.0000   1.0000   1.0000   1.0000   1.0000
     1.0000   1.0000   1.0000   1.0000   1.0000   1.0000   1.0000   1.0000
     1.0000   1.0000   1.0000   1.0000   1.0000   1.0000   1.0000   1.0000
     1.0000   1.0000   1.0000   1.0000   1.0000   1.0000   1.0000   1.0000
     1.0000   1.0000   1.0000   1.0000   1.0000   1.0000   1.0000   1.0000
     1.0000   1.0000   1.0000   1.0000   1.0000   1.0000   1.0000   1.0000
     1.0000   1.0000   1.0000   1.0000   1.0000   1.0000   1.0000   1.0000
     1.0000   1.0000   1.0000   1.0000   1.0000   1.0000   1.0000   1.0000
     1.0000   1.0000   1.0000   1.0000   1.0000   1.0000   1.0000   1.0000
     1.0000   1.0000   1.0000   1.0000   1.0000   1.0000   1.0000   1.0000
     1.0000   1.0000   1.0000   1.0000   1.0000   1.0000   1.0000   1.0000
     1.0000   1.0000   1.0000   1.0000   1.0000   1.0000   1.0000   1.0000
     1.0000   1.0000   1.0000   1.0000   1.0000   1.0000   1.0000   1.0000
     1.0000   1.0000   1.0000   1.0000   1.0000   1.0000   1.0000   1.0000
     1.0000   1.0000   1.0000   1.0000   1.0000   1.0000   1.0000   1.0000
     1.0000   1.0000   1.0000   1.0000   1.0000   1.0000   1.0000   1.0000
     1.0000   1.0000   1.0000   1.0000   1.0000   1.0000   1.0000   1.0000
     1.0000   1.0000   1.0000   1.0000   1.0000   1.0000   1.0000   1.0000
     1.0000   1.0000   1.0000   1.0000   1.0000   1.0000   1.0000   1.0000
     1.0000   1.0000   1.0000   1.0000   1.0000   1.0000   1.0000   1.0000
     1.0000   1.0000   1.0000   1.0000   1.0000   1.0000   1.0000   1.0000
     1.0000   1.0000   1.0000   1.0000   1.0000   1.0000   1.0000   1.0000
     1.0000   1.0000   1.0000   1.0000   1.0000   1.0000   1.0000   1.0000
     1.0000   1.0000   1.0000   1.0000   1.0000   1.0000   1.0000   1.0000
     1.0000   1.0000   1.0000   1.0000   1.0000   1.0000   1.0000   1.0000
     1.0000   1.0000   1.0000   1.0000   1.0000   1.0000   1.0000   1.0000
     1.0000   1.0000   1.0000   1.0000   1.0000   1.0000   1.0000   1.0000
     1.0000   1.0000   1.0000   1.0000   1.0000   1.0000   1.0000   1.0000
     1.0000   1.0000   1.0000   1.0000   1.0000   1.0000   1.0000   1.0000
     1.0000   1.0000   0.9328   0.0000   0.0000   0.0000   0.0000   0.0000
     0.0000   0.0000   0.0000   0.0000   0.0000   0.0000   0.0000   0.0000
     0.0000   0.0000   0.0000   0.0000   0.0000   0.0000   0.0000   0.0000
     0.0000   0.0000   0.0000   0.0000   0.0000   0.0000   0.0000   0.0000
     0.0000   0.0000   0.0000   0.0000   0.0000   0.0000   0.0000   0.0000
     0.0000   0.0000   0.0000   0.0000   0.0000   0.0000   0.0000   0.0000
     0.0000   0.0000   0.0000   0.0000   0.0000   0.0000

          k = 0.0000 0.2887 0.0000 ( 79285 PWs)   bands (ev):

  -113.1343-113.1296-113.1279-113.1276-113.1256-113.1254-113.1239-113.1230
  -113.1221-112.8468-112.8424-112.8405-112.8401-112.8382-112.8376-112.8370
  -112.8352-112.8351-112.7748-112.7656-112.7618-112.7615-112.7591-112.7587
  -112.7555-112.7546-112.7539 -70.5840 -70.5760 -70.5757 -70.5739 -70.5737
   -70.5570 -70.5566 -70.5481 -70.5479 -70.5442 -70.5214 -70.5213 -70.5197
   -70.5154 -70.5153 -70.5143 -70.5097 -70.5087 -70.5067 -70.5064 -70.5043
   -70.5040 -70.5038 -70.5021 -70.5009 -70.4998 -70.4996 -70.3039 -70.2962
   -70.2960 -70.2940 -70.2940 -70.2777 -70.2773 -70.2693 -70.2690 -70.2651
   -70.2433 -70.2431 -70.2416 -70.2375 -70.2370 -70.2317 -70.2290 -70.2262
   -70.2224 -70.2218 -70.2199 -70.2166 -70.2163 -70.2018 -70.2008 -70.1933
   -70.1930 -70.1922 -70.1894 -70.1877 -70.1871 -70.1869 -70.1854 -70.1847
   -70.1842 -70.1827 -70.1826 -70.1675 -70.1674 -70.1636 -70.1600 -70.1597
   -70.1543 -70.1485 -70.1445 -70.1174 -70.1045 -70.1008 -70.1006 -70.0983
   -70.0974 -70.0944 -70.0934 -70.0928 -24.6211 -23.6709  -9.1387  -8.4088
    -8.1014  -8.0786  -8.0785  -6.7515  -6.4526  -6.0615  -6.0615  -5.1972
    -5.1922  -5.1922  -5.1450  -5.0869  -4.8084  -4.8058  -4.7427  -4.6663
    -4.6657  -4.4587  -4.4356  -4.4026  -4.3616  -4.3202  -4.3201  -4.3149
    -4.3145  -4.2265  -4.2251  -4.2219  -4.2216  -4.2044  -4.0669  -4.0667
    -4.0368  -4.0359  -3.8578  -3.8577  -3.8257  -3.8245  -3.7739  -3.6744
    -3.6736  -3.6249  -3.6219  -3.6213  -3.6142  -3.6117  -3.6117  -3.4455
    -3.4455  -3.3759  -3.3329  -3.3262  -3.3254  -3.3166  -3.2884  -3.2797
    -3.2791  -3.2316  -3.1938  -3.0990  -3.0980  -3.0913  -3.0911  -3.0455
    -3.0441  -3.0432  -3.0105  -3.0101  -2.9941  -2.9669  -2.9658  -2.9513
    -2.9494  -2.9016  -2.8996  -2.8986  -2.8979  -2.8940  -2.8915  -2.8444
    -2.8439  -2.8280  -2.8145  -2.8085  -2.7879  -2.7605  -2.7591  -2.7246
    -2.7234  -2.6359  -2.5715  -2.5696  -2.5179  -2.5136  -2.5132  -2.4832
    -2.4827  -2.4224  -2.4131  -2.4004  -2.3655  -2.3643  -2.3626  -2.3616
    -2.3267  -2.3265  -2.3002  -2.2992  -2.2745  -2.2714  -2.2463  -2.1991
    -2.1928  -2.1917  -2.1662  -2.1650  -2.0835  -2.0700  -2.0547  -2.0531
    -2.0312  -2.0310  -2.0300  -2.0081  -2.0068  -2.0018  -1.9630  -1.9452
    -1.9442  -1.9267  -1.9251  -1.9025  -1.8912  -1.8614  -1.8610  -1.8600
    -1.8578  -1.8574  -1.8562  -1.8502  -1.8495  -1.8281  -1.8271  -1.7078
    -1.6350  -1.4886  -1.4809  -1.3068  -1.3065  -1.2384  -1.1404  -0.3786
    -0.3723   0.0513   0.2209   0.3632   0.8953   0.9198   1.7786   1.7795
     2.1996   2.2209   2.4398   2.8506   3.1831   3.1884   3.5096   3.7854
     3.8851   4.2337   4.2367   4.2490   4.3000   4.3773   4.9369   5.1672
     5.2424   5.3251   5.5653   5.5741   5.6292   5.8942   5.9343   5.9347
     6.0854   6.1740   6.3493   6.4708   6.4921   6.4995   6.5167   6.5288
     6.6578   6.7729   6.8585   6.9215   6.9232   7.0786   7.1077   7.1112
     7.2337   7.5203   7.5344   7.6737   7.7959   7.9123

     occupation numbers 
     1.0000   1.0000   1.0000   1.0000   1.0000   1.0000   1.0000   1.0000
     1.0000   1.0000   1.0000   1.0000   1.0000   1.0000   1.0000   1.0000
     1.0000   1.0000   1.0000   1.0000   1.0000   1.0000   1.0000   1.0000
     1.0000   1.0000   1.0000   1.0000   1.0000   1.0000   1.0000   1.0000
     1.0000   1.0000   1.0000   1.0000   1.0000   1.0000   1.0000   1.0000
     1.0000   1.0000   1.0000   1.0000   1.0000   1.0000   1.0000   1.0000
     1.0000   1.0000   1.0000   1.0000   1.0000   1.0000   1.0000   1.0000
     1.0000   1.0000   1.0000   1.0000   1.0000   1.0000   1.0000   1.0000
     1.0000   1.0000   1.0000   1.0000   1.0000   1.0000   1.0000   1.0000
     1.0000   1.0000   1.0000   1.0000   1.0000   1.0000   1.0000   1.0000
     1.0000   1.0000   1.0000   1.0000   1.0000   1.0000   1.0000   1.0000
     1.0000   1.0000   1.0000   1.0000   1.0000   1.0000   1.0000   1.0000
     1.0000   1.0000   1.0000   1.0000   1.0000   1.0000   1.0000   1.0000
     1.0000   1.0000   1.0000   1.0000   1.0000   1.0000   1.0000   1.0000
     1.0000   1.0000   1.0000   1.0000   1.0000   1.0000   1.0000   1.0000
     1.0000   1.0000   1.0000   1.0000   1.0000   1.0000   1.0000   1.0000
     1.0000   1.0000   1.0000   1.0000   1.0000   1.0000   1.0000   1.0000
     1.0000   1.0000   1.0000   1.0000   1.0000   1.0000   1.0000   1.0000
     1.0000   1.0000   1.0000   1.0000   1.0000   1.0000   1.0000   1.0000
     1.0000   1.0000   1.0000   1.0000   1.0000   1.0000   1.0000   1.0000
     1.0000   1.0000   1.0000   1.0000   1.0000   1.0000   1.0000   1.0000
     1.0000   1.0000   1.0000   1.0000   1.0000   1.0000   1.0000   1.0000
     1.0000   1.0000   1.0000   1.0000   1.0000   1.0000   1.0000   1.0000
     1.0000   1.0000   1.0000   1.0000   1.0000   1.0000   1.0000   1.0000
     1.0000   1.0000   1.0000   1.0000   1.0000   1.0000   1.0000   1.0000
     1.0000   1.0000   1.0000   1.0000   1.0000   1.0000   1.0000   1.0000
     1.0000   1.0000   1.0000   1.0000   1.0000   1.0000   1.0000   1.0000
     1.0000   1.0000   1.0000   1.0000   1.0000   1.0000   1.0000   1.0000
     1.0000   1.0000   1.0000   1.0000   1.0000   1.0000   1.0000   1.0000
     1.0000   1.0000   1.0000   1.0000   1.0000   1.0000   1.0000   1.0000
     1.0000   1.0000   1.0000   1.0000   1.0000   1.0000   1.0000   1.0000
     1.0000   1.0000   1.0000   1.0000   1.0000   1.0000   1.0000   1.0000
     1.0000   1.0000   1.0000   1.0000   1.0000   1.0000   1.0000   1.0061
     1.0072   0.1348   0.0012   0.0000   0.0000   0.0000   0.0000   0.0000
     0.0000   0.0000   0.0000   0.0000   0.0000   0.0000   0.0000   0.0000
     0.0000   0.0000   0.0000   0.0000   0.0000   0.0000   0.0000   0.0000
     0.0000   0.0000   0.0000   0.0000   0.0000   0.0000   0.0000   0.0000
     0.0000   0.0000   0.0000   0.0000   0.0000   0.0000   0.0000   0.0000
     0.0000   0.0000   0.0000   0.0000   0.0000   0.0000   0.0000   0.0000
     0.0000   0.0000   0.0000   0.0000   0.0000   0.0000

          k = 0.0000-0.5774 0.0000 ( 79256 PWs)   bands (ev):

  -113.1328-113.1317-113.1283-113.1280-113.1250-113.1245-113.1236-113.1232
  -113.1225-112.8455-112.8442-112.8409-112.8404-112.8376-112.8367-112.8365
  -112.8357-112.8355-112.7746-112.7657-112.7620-112.7617-112.7591-112.7588
  -112.7549-112.7547-112.7541 -70.5901 -70.5789 -70.5788 -70.5782 -70.5779
   -70.5517 -70.5512 -70.5335 -70.5332 -70.5325 -70.5325 -70.5218 -70.5213
   -70.5207 -70.5170 -70.5166 -70.5125 -70.5112 -70.5071 -70.5068 -70.5043
   -70.5034 -70.5034 -70.5026 -70.5017 -70.5012 -70.5003 -70.3098 -70.2993
   -70.2991 -70.2980 -70.2979 -70.2725 -70.2721 -70.2551 -70.2548 -70.2541
   -70.2539 -70.2433 -70.2432 -70.2424 -70.2387 -70.2384 -70.2347 -70.2265
   -70.2255 -70.2255 -70.2234 -70.2203 -70.2201 -70.1968 -70.1951 -70.1921
   -70.1904 -70.1878 -70.1872 -70.1850 -70.1841 -70.1839 -70.1830 -70.1829
   -70.1812 -70.1797 -70.1758 -70.1757 -70.1678 -70.1657 -70.1649 -70.1611
   -70.1596 -70.1493 -70.1481 -70.1174 -70.1044 -70.1010 -70.1008 -70.0980
   -70.0978 -70.0939 -70.0936 -70.0930 -24.6210 -23.6708  -9.1385  -8.1079
    -8.0792  -8.0780  -7.7477  -7.7446  -6.1950  -6.1950  -5.8686  -5.8670
    -4.9606  -4.7989  -4.7953  -4.7684  -4.7678  -4.7591  -4.6853  -4.6852
    -4.6851  -4.6850  -4.4864  -4.4854  -4.4854  -4.4851  -4.4559  -4.4341
    -4.3979  -4.2905  -4.2000  -4.1995  -4.1994  -4.1992  -4.0501  -4.0494
    -3.9084  -3.9083  -3.9072  -3.9067  -3.8919  -3.8915  -3.6298  -3.6230
    -3.6229  -3.6217  -3.6215  -3.5812  -3.5810  -3.5488  -3.5473  -3.4471
    -3.4468  -3.4020  -3.4013  -3.3757  -3.3630  -3.3617  -3.3615  -3.3609
    -3.2807  -3.2801  -3.2690  -3.2689  -3.2350  -3.2317  -3.1753  -3.1750
    -3.1747  -3.1744  -3.0606  -3.0602  -2.9753  -2.9744  -2.9726  -2.9522
    -2.9501  -2.9494  -2.9491  -2.9406  -2.9396  -2.8610  -2.8609  -2.8435
    -2.8421  -2.8163  -2.8155  -2.6958  -2.6700  -2.6691  -2.6683  -2.6678
    -2.6200  -2.6189  -2.5687  -2.5673  -2.5454  -2.5419  -2.5163  -2.5153
    -2.5148  -2.5142  -2.4763  -2.4715  -2.4036  -2.4027  -2.4022  -2.4014
    -2.3843  -2.3833  -2.3397  -2.2981  -2.2961  -2.2888  -2.2875  -2.2730
    -2.2217  -2.2205  -2.2199  -2.2198  -2.1194  -2.1163  -2.0966  -2.0958
    -2.0952  -2.0944  -2.0539  -2.0530  -1.9977  -1.9964  -1.9615  -1.9604
    -1.9508  -1.8706  -1.8689  -1.8656  -1.8644  -1.8632  -1.8617  -1.8610
    -1.8600  -1.8597  -1.8586  -1.7804  -1.7796  -1.7783  -1.7778  -1.6159
    -1.5417  -1.4739  -1.4667  -0.6148  -0.6018  -0.0228  -0.0221  -0.0219
    -0.0216   0.1399   0.7679   0.7933   1.2186   1.2219   1.2251   1.2271
     1.2790   1.4289   1.4566   1.7216   3.4448   3.4498   3.4653   3.4685
     3.5329   3.6602   4.0440   4.3094   4.3634   4.3909   4.6910   4.8581
     4.9281   5.5819   5.5856   5.5891   5.5928   5.5929   5.5953   5.7738
     5.8460   5.9922   5.9936   6.1707   6.2178   6.2228   6.6064   6.6327
     6.6963   6.8154   6.8159   6.8242   6.8673   7.1454   7.1555   7.3162
     7.3275   7.3835   7.3915   7.5005   7.5260   7.5383

     occupation numbers 
     1.0000   1.0000   1.0000   1.0000   1.0000   1.0000   1.0000   1.0000
     1.0000   1.0000   1.0000   1.0000   1.0000   1.0000   1.0000   1.0000
     1.0000   1.0000   1.0000   1.0000   1.0000   1.0000   1.0000   1.0000
     1.0000   1.0000   1.0000   1.0000   1.0000   1.0000   1.0000   1.0000
     1.0000   1.0000   1.0000   1.0000   1.0000   1.0000   1.0000   1.0000
     1.0000   1.0000   1.0000   1.0000   1.0000   1.0000   1.0000   1.0000
     1.0000   1.0000   1.0000   1.0000   1.0000   1.0000   1.0000   1.0000
     1.0000   1.0000   1.0000   1.0000   1.0000   1.0000   1.0000   1.0000
     1.0000   1.0000   1.0000   1.0000   1.0000   1.0000   1.0000   1.0000
     1.0000   1.0000   1.0000   1.0000   1.0000   1.0000   1.0000   1.0000
     1.0000   1.0000   1.0000   1.0000   1.0000   1.0000   1.0000   1.0000
     1.0000   1.0000   1.0000   1.0000   1.0000   1.0000   1.0000   1.0000
     1.0000   1.0000   1.0000   1.0000   1.0000   1.0000   1.0000   1.0000
     1.0000   1.0000   1.0000   1.0000   1.0000   1.0000   1.0000   1.0000
     1.0000   1.0000   1.0000   1.0000   1.0000   1.0000   1.0000   1.0000
     1.0000   1.0000   1.0000   1.0000   1.0000   1.0000   1.0000   1.0000
     1.0000   1.0000   1.0000   1.0000   1.0000   1.0000   1.0000   1.0000
     1.0000   1.0000   1.0000   1.0000   1.0000   1.0000   1.0000   1.0000
     1.0000   1.0000   1.0000   1.0000   1.0000   1.0000   1.0000   1.0000
     1.0000   1.0000   1.0000   1.0000   1.0000   1.0000   1.0000   1.0000
     1.0000   1.0000   1.0000   1.0000   1.0000   1.0000   1.0000   1.0000
     1.0000   1.0000   1.0000   1.0000   1.0000   1.0000   1.0000   1.0000
     1.0000   1.0000   1.0000   1.0000   1.0000   1.0000   1.0000   1.0000
     1.0000   1.0000   1.0000   1.0000   1.0000   1.0000   1.0000   1.0000
     1.0000   1.0000   1.0000   1.0000   1.0000   1.0000   1.0000   1.0000
     1.0000   1.0000   1.0000   1.0000   1.0000   1.0000   1.0000   1.0000
     1.0000   1.0000   1.0000   1.0000   1.0000   1.0000   1.0000   1.0000
     1.0000   1.0000   1.0000   1.0000   1.0000   1.0000   1.0000   1.0000
     1.0000   1.0000   1.0000   1.0000   1.0000   1.0000   1.0000   1.0000
     1.0000   1.0000   1.0000   1.0000   1.0000   1.0000   1.0000   1.0000
     1.0000   1.0000   1.0000   1.0000   1.0000   1.0000   1.0000   1.0000
     1.0000   1.0000   1.0000   1.0000   1.0000   1.0000   1.0000   1.0000
     1.0000   1.0000   1.0000   1.0000   1.0000   0.4272   0.4237   0.4228
     0.4211   0.0165   0.0000   0.0000   0.0000   0.0000   0.0000   0.0000
     0.0000   0.0000   0.0000   0.0000   0.0000   0.0000   0.0000   0.0000
     0.0000   0.0000   0.0000   0.0000   0.0000   0.0000   0.0000   0.0000
     0.0000   0.0000   0.0000   0.0000   0.0000   0.0000   0.0000   0.0000
     0.0000   0.0000   0.0000   0.0000   0.0000   0.0000   0.0000   0.0000
     0.0000   0.0000   0.0000   0.0000   0.0000   0.0000   0.0000   0.0000
     0.0000   0.0000   0.0000   0.0000   0.0000   0.0000

          k = 0.2500-0.7217 0.0000 ( 79292 PWs)   bands (ev):

  -113.1330-113.1307-113.1300-113.1264-113.1254-113.1247-113.1237-113.1232
  -113.1223-112.8457-112.8434-112.8424-112.8391-112.8378-112.8370-112.8365
  -112.8356-112.8354-112.7747-112.7653-112.7629-112.7615-112.7592-112.7582
  -112.7552-112.7547-112.7540 -70.5869 -70.5865 -70.5825 -70.5729 -70.5676
   -70.5669 -70.5386 -70.5357 -70.5347 -70.5345 -70.5263 -70.5258 -70.5248
   -70.5243 -70.5155 -70.5128 -70.5101 -70.5092 -70.5087 -70.5085 -70.5049
   -70.5037 -70.5030 -70.5028 -70.5017 -70.5013 -70.5001 -70.3069 -70.3062
   -70.3025 -70.2932 -70.2880 -70.2874 -70.2600 -70.2573 -70.2559 -70.2557
   -70.2481 -70.2472 -70.2466 -70.2462 -70.2372 -70.2325 -70.2308 -70.2305
   -70.2300 -70.2262 -70.2249 -70.2167 -70.2129 -70.2096 -70.1922 -70.1899
   -70.1889 -70.1864 -70.1849 -70.1845 -70.1844 -70.1838 -70.1831 -70.1829
   -70.1827 -70.1789 -70.1776 -70.1726 -70.1706 -70.1689 -70.1679 -70.1598
   -70.1534 -70.1532 -70.1474 -70.1174 -70.1041 -70.1018 -70.1005 -70.0984
   -70.0970 -70.0941 -70.0936 -70.0929 -24.6211 -23.6707  -9.1357  -8.1099
    -8.0825  -8.0788  -7.9572  -7.1273  -7.1268  -6.0522  -5.3717  -5.3703
    -5.2191  -5.2187  -4.8945  -4.8825  -4.8824  -4.6775  -4.6773  -4.6002
    -4.5369  -4.5267  -4.5241  -4.4852  -4.4679  -4.4370  -4.4284  -4.4164
    -4.3528  -4.3457  -4.3453  -4.2032  -4.1742  -4.1732  -4.1101  -4.1096
    -4.0981  -3.9561  -3.8600  -3.8383  -3.8374  -3.7140  -3.7133  -3.6240
    -3.6218  -3.6212  -3.6104  -3.6085  -3.5675  -3.5666  -3.5530  -3.5249
    -3.4717  -3.4042  -3.4040  -3.3689  -3.3248  -3.3242  -3.3217  -3.3203
    -3.3066  -3.3020  -3.2366  -3.1561  -3.1557  -3.1554  -3.1552  -3.0851
    -3.0748  -3.0743  -3.0543  -3.0532  -3.0445  -3.0229  -3.0191  -3.0183
    -3.0176  -2.9891  -2.9875  -2.9720  -2.9049  -2.8843  -2.8793  -2.8517
    -2.8376  -2.8369  -2.7856  -2.7845  -2.7724  -2.7717  -2.7702  -2.7682
    -2.6829  -2.6812  -2.6291  -2.6262  -2.5350  -2.4980  -2.4941  -2.4474
    -2.4454  -2.4444  -2.4430  -2.4127  -2.4098  -2.3963  -2.3651  -2.3534
    -2.3519  -2.3474  -2.3321  -2.3320  -2.3102  -2.2977  -2.2962  -2.2522
    -2.2517  -2.2502  -2.1676  -2.1668  -2.1660  -2.1556  -2.1545  -2.1170
    -2.0495  -2.0493  -1.9819  -1.9766  -1.9580  -1.9568  -1.9405  -1.9381
    -1.9225  -1.9206  -1.9131  -1.8898  -1.8852  -1.8844  -1.8755  -1.8735
    -1.8706  -1.8470  -1.8459  -1.8114  -1.7986  -1.7965  -1.7809  -1.6997
    -1.6986  -1.2310  -1.2304  -0.7908  -0.4061  -0.4030  -0.0915  -0.0795
    -0.0202   0.0304   0.0315   1.1169   1.1976   1.2025   1.2346   1.4667
     2.0563   2.0728   2.2584   2.3108   2.3376   2.4929   2.4963   2.8959
     3.6797   3.9152   4.2800   4.3241   4.6053   4.8258   4.9929   5.0045
     5.0651   5.0867   5.2404   5.3003   5.3735   5.5212   5.6228   5.7556
     5.7967   5.8183   6.0242   6.2237   6.2428   6.4349   6.6054   6.6634
     6.7763   6.8221   6.8746   6.9501   7.1399   7.1633   7.2019   7.2483
     7.2548   7.5127   7.5328   7.5623   7.7802   7.8482

     occupation numbers 
     1.0000   1.0000   1.0000   1.0000   1.0000   1.0000   1.0000   1.0000
     1.0000   1.0000   1.0000   1.0000   1.0000   1.0000   1.0000   1.0000
     1.0000   1.0000   1.0000   1.0000   1.0000   1.0000   1.0000   1.0000
     1.0000   1.0000   1.0000   1.0000   1.0000   1.0000   1.0000   1.0000
     1.0000   1.0000   1.0000   1.0000   1.0000   1.0000   1.0000   1.0000
     1.0000   1.0000   1.0000   1.0000   1.0000   1.0000   1.0000   1.0000
     1.0000   1.0000   1.0000   1.0000   1.0000   1.0000   1.0000   1.0000
     1.0000   1.0000   1.0000   1.0000   1.0000   1.0000   1.0000   1.0000
     1.0000   1.0000   1.0000   1.0000   1.0000   1.0000   1.0000   1.0000
     1.0000   1.0000   1.0000   1.0000   1.0000   1.0000   1.0000   1.0000
     1.0000   1.0000   1.0000   1.0000   1.0000   1.0000   1.0000   1.0000
     1.0000   1.0000   1.0000   1.0000   1.0000   1.0000   1.0000   1.0000
     1.0000   1.0000   1.0000   1.0000   1.0000   1.0000   1.0000   1.0000
     1.0000   1.0000   1.0000   1.0000   1.0000   1.0000   1.0000   1.0000
     1.0000   1.0000   1.0000   1.0000   1.0000   1.0000   1.0000   1.0000
     1.0000   1.0000   1.0000   1.0000   1.0000   1.0000   1.0000   1.0000
     1.0000   1.0000   1.0000   1.0000   1.0000   1.0000   1.0000   1.0000
     1.0000   1.0000   1.0000   1.0000   1.0000   1.0000   1.0000   1.0000
     1.0000   1.0000   1.0000   1.0000   1.0000   1.0000   1.0000   1.0000
     1.0000   1.0000   1.0000   1.0000   1.0000   1.0000   1.0000   1.0000
     1.0000   1.0000   1.0000   1.0000   1.0000   1.0000   1.0000   1.0000
     1.0000   1.0000   1.0000   1.0000   1.0000   1.0000   1.0000   1.0000
     1.0000   1.0000   1.0000   1.0000   1.0000   1.0000   1.0000   1.0000
     1.0000   1.0000   1.0000   1.0000   1.0000   1.0000   1.0000   1.0000
     1.0000   1.0000   1.0000   1.0000   1.0000   1.0000   1.0000   1.0000
     1.0000   1.0000   1.0000   1.0000   1.0000   1.0000   1.0000   1.0000
     1.0000   1.0000   1.0000   1.0000   1.0000   1.0000   1.0000   1.0000
     1.0000   1.0000   1.0000   1.0000   1.0000   1.0000   1.0000   1.0000
     1.0000   1.0000   1.0000   1.0000   1.0000   1.0000   1.0000   1.0000
     1.0000   1.0000   1.0000   1.0000   1.0000   1.0000   1.0000   1.0000
     1.0000   1.0000   1.0000   1.0000   1.0000   1.0000   1.0000   1.0000
     1.0000   1.0000   1.0000   1.0000   1.0000   1.0000   1.0000   1.0000
     1.0000   1.0000   1.0000   1.0000   1.0028   1.0030   0.7969   0.7352
     0.4142   0.1969   0.1933   0.0000   0.0000   0.0000   0.0000   0.0000
     0.0000   0.0000   0.0000   0.0000   0.0000   0.0000   0.0000   0.0000
     0.0000   0.0000   0.0000   0.0000   0.0000   0.0000   0.0000   0.0000
     0.0000   0.0000   0.0000   0.0000   0.0000   0.0000   0.0000   0.0000
     0.0000   0.0000   0.0000   0.0000   0.0000   0.0000   0.0000   0.0000
     0.0000   0.0000   0.0000   0.0000   0.0000   0.0000   0.0000   0.0000
     0.0000   0.0000   0.0000   0.0000   0.0000   0.0000

          k =-0.2500 0.1443 0.0000 ( 79285 PWs)   bands (ev):

  -113.1343-113.1296-113.1280-113.1276-113.1257-113.1253-113.1240-113.1230
  -113.1221-112.8469-112.8424-112.8407-112.8399-112.8382-112.8377-112.8369
  -112.8353-112.8351-112.7748-112.7653-112.7627-112.7609-112.7599-112.7577
  -112.7558-112.7546-112.7539 -70.5840 -70.5759 -70.5758 -70.5738 -70.5738
   -70.5569 -70.5567 -70.5481 -70.5480 -70.5442 -70.5215 -70.5213 -70.5197
   -70.5156 -70.5152 -70.5143 -70.5096 -70.5087 -70.5068 -70.5063 -70.5043
   -70.5041 -70.5036 -70.5022 -70.5009 -70.4998 -70.4996 -70.3040 -70.2963
   -70.2959 -70.2941 -70.2939 -70.2777 -70.2772 -70.2692 -70.2691 -70.2651
   -70.2433 -70.2431 -70.2416 -70.2374 -70.2371 -70.2317 -70.2287 -70.2263
   -70.2222 -70.2218 -70.2199 -70.2177 -70.2164 -70.2015 -70.2005 -70.1932
   -70.1930 -70.1920 -70.1894 -70.1880 -70.1874 -70.1866 -70.1854 -70.1849
   -70.1842 -70.1827 -70.1826 -70.1674 -70.1668 -70.1643 -70.1600 -70.1596
   -70.1544 -70.1488 -70.1442 -70.1174 -70.1042 -70.1017 -70.0999 -70.0990
   -70.0965 -70.0947 -70.0935 -70.0928 -24.6211 -23.6707  -9.1358  -8.4088
    -8.1013  -8.0820  -8.0785  -6.7516  -6.4528  -6.0615  -6.0613  -5.1974
    -5.1922  -5.1921  -5.1466  -5.0869  -4.8067  -4.8054  -4.7429  -4.6661
    -4.6656  -4.4614  -4.4379  -4.4023  -4.3588  -4.3202  -4.3201  -4.3148
    -4.3146  -4.2263  -4.2260  -4.2219  -4.2216  -4.2038  -4.0669  -4.0668
    -4.0367  -4.0361  -3.8579  -3.8577  -3.8255  -3.8253  -3.7737  -3.6742
    -3.6741  -3.6246  -3.6218  -3.6215  -3.6135  -3.6119  -3.6118  -3.4456
    -3.4453  -3.3759  -3.3327  -3.3261  -3.3259  -3.3166  -3.2883  -3.2796
    -3.2794  -3.2316  -3.1938  -3.0987  -3.0984  -3.0913  -3.0911  -3.0454
    -3.0439  -3.0438  -3.0105  -3.0104  -2.9941  -2.9665  -2.9661  -2.9513
    -2.9494  -2.9017  -2.8994  -2.8990  -2.8976  -2.8940  -2.8928  -2.8444
    -2.8440  -2.8280  -2.8130  -2.8083  -2.7879  -2.7603  -2.7596  -2.7244
    -2.7240  -2.6359  -2.5715  -2.5704  -2.5165  -2.5151  -2.5127  -2.4832
    -2.4828  -2.4219  -2.4131  -2.4005  -2.3652  -2.3648  -2.3623  -2.3619
    -2.3267  -2.3266  -2.2999  -2.2995  -2.2746  -2.2714  -2.2462  -2.1991
    -2.1927  -2.1918  -2.1659  -2.1655  -2.0835  -2.0697  -2.0544  -2.0533
    -2.0311  -2.0310  -2.0302  -2.0076  -2.0071  -2.0018  -1.9632  -1.9450
    -1.9443  -1.9266  -1.9252  -1.9025  -1.8902  -1.8618  -1.8609  -1.8601
    -1.8575  -1.8571  -1.8566  -1.8502  -1.8495  -1.8279  -1.8274  -1.7078
    -1.6350  -1.4857  -1.4849  -1.3068  -1.3066  -1.2378  -1.1400  -0.3764
    -0.3755   0.0521   0.2229   0.3636   0.9069   0.9086   1.7789   1.7790
     2.2077   2.2105   2.4384   2.8474   3.1831   3.1856   3.5238   3.8368
     3.8477   4.2289   4.2359   4.2456   4.3131   4.3408   4.9392   5.1763
     5.2986   5.3302   5.5334   5.5874   5.6243   5.9230   5.9313   5.9554
     6.1408   6.2127   6.2693   6.4537   6.4824   6.4991   6.5072   6.5524
     6.6669   6.7778   6.8280   6.8622   6.9622   7.0780   7.1088   7.1132
     7.2729   7.5045   7.5267   7.6492   7.7476   7.9244

     occupation numbers 
     1.0000   1.0000   1.0000   1.0000   1.0000   1.0000   1.0000   1.0000
     1.0000   1.0000   1.0000   1.0000   1.0000   1.0000   1.0000   1.0000
     1.0000   1.0000   1.0000   1.0000   1.0000   1.0000   1.0000   1.0000
     1.0000   1.0000   1.0000   1.0000   1.0000   1.0000   1.0000   1.0000
     1.0000   1.0000   1.0000   1.0000   1.0000   1.0000   1.0000   1.0000
     1.0000   1.0000   1.0000   1.0000   1.0000   1.0000   1.0000   1.0000
     1.0000   1.0000   1.0000   1.0000   1.0000   1.0000   1.0000   1.0000
     1.0000   1.0000   1.0000   1.0000   1.0000   1.0000   1.0000   1.0000
     1.0000   1.0000   1.0000   1.0000   1.0000   1.0000   1.0000   1.0000
     1.0000   1.0000   1.0000   1.0000   1.0000   1.0000   1.0000   1.0000
     1.0000   1.0000   1.0000   1.0000   1.0000   1.0000   1.0000   1.0000
     1.0000   1.0000   1.0000   1.0000   1.0000   1.0000   1.0000   1.0000
     1.0000   1.0000   1.0000   1.0000   1.0000   1.0000   1.0000   1.0000
     1.0000   1.0000   1.0000   1.0000   1.0000   1.0000   1.0000   1.0000
     1.0000   1.0000   1.0000   1.0000   1.0000   1.0000   1.0000   1.0000
     1.0000   1.0000   1.0000   1.0000   1.0000   1.0000   1.0000   1.0000
     1.0000   1.0000   1.0000   1.0000   1.0000   1.0000   1.0000   1.0000
     1.0000   1.0000   1.0000   1.0000   1.0000   1.0000   1.0000   1.0000
     1.0000   1.0000   1.0000   1.0000   1.0000   1.0000   1.0000   1.0000
     1.0000   1.0000   1.0000   1.0000   1.0000   1.0000   1.0000   1.0000
     1.0000   1.0000   1.0000   1.0000   1.0000   1.0000   1.0000   1.0000
     1.0000   1.0000   1.0000   1.0000   1.0000   1.0000   1.0000   1.0000
     1.0000   1.0000   1.0000   1.0000   1.0000   1.0000   1.0000   1.0000
     1.0000   1.0000   1.0000   1.0000   1.0000   1.0000   1.0000   1.0000
     1.0000   1.0000   1.0000   1.0000   1.0000   1.0000   1.0000   1.0000
     1.0000   1.0000   1.0000   1.0000   1.0000   1.0000   1.0000   1.0000
     1.0000   1.0000   1.0000   1.0000   1.0000   1.0000   1.0000   1.0000
     1.0000   1.0000   1.0000   1.0000   1.0000   1.0000   1.0000   1.0000
     1.0000   1.0000   1.0000   1.0000   1.0000   1.0000   1.0000   1.0000
     1.0000   1.0000   1.0000   1.0000   1.0000   1.0000   1.0000   1.0000
     1.0000   1.0000   1.0000   1.0000   1.0000   1.0000   1.0000   1.0000
     1.0000   1.0000   1.0000   1.0000   1.0000   1.0000   1.0000   1.0000
     1.0000   1.0000   1.0000   1.0000   1.0000   1.0000   1.0000   1.0064
     1.0066   0.1328   0.0011   0.0000   0.0000   0.0000   0.0000   0.0000
     0.0000   0.0000   0.0000   0.0000   0.0000   0.0000   0.0000   0.0000
     0.0000   0.0000   0.0000   0.0000   0.0000   0.0000   0.0000   0.0000
     0.0000   0.0000   0.0000   0.0000   0.0000   0.0000   0.0000   0.0000
     0.0000   0.0000   0.0000   0.0000   0.0000   0.0000   0.0000   0.0000
     0.0000   0.0000   0.0000   0.0000   0.0000   0.0000   0.0000   0.0000
     0.0000   0.0000   0.0000   0.0000   0.0000   0.0000

          k = 0.5000-0.2887 0.0000 ( 79256 PWs)   bands (ev):

  -113.1328-113.1317-113.1283-113.1279-113.1249-113.1243-113.1239-113.1232
  -113.1224-112.8456-112.8441-112.8411-112.8403-112.8376-112.8367-112.8363
  -112.8357-112.8355-112.7747-112.7647-112.7638-112.7611-112.7598-112.7574
  -112.7555-112.7546-112.7540 -70.5901 -70.5790 -70.5788 -70.5781 -70.5779
   -70.5516 -70.5513 -70.5334 -70.5333 -70.5326 -70.5323 -70.5217 -70.5213
   -70.5208 -70.5171 -70.5165 -70.5125 -70.5112 -70.5072 -70.5067 -70.5042
   -70.5035 -70.5033 -70.5025 -70.5020 -70.5012 -70.5002 -70.3098 -70.2994
   -70.2989 -70.2982 -70.2979 -70.2726 -70.2720 -70.2549 -70.2548 -70.2541
   -70.2540 -70.2433 -70.2432 -70.2424 -70.2388 -70.2384 -70.2344 -70.2265
   -70.2253 -70.2253 -70.2232 -70.2215 -70.2201 -70.1965 -70.1952 -70.1921
   -70.1903 -70.1881 -70.1870 -70.1850 -70.1842 -70.1837 -70.1831 -70.1829
   -70.1808 -70.1782 -70.1770 -70.1755 -70.1680 -70.1664 -70.1643 -70.1608
   -70.1606 -70.1504 -70.1468 -70.1174 -70.1034 -70.1028 -70.1000 -70.0990
   -70.0964 -70.0944 -70.0935 -70.0930 -24.6212 -23.6705  -9.1326  -8.1073
    -8.0863  -8.0783  -7.7477  -7.7450  -6.1949  -6.1948  -5.8687  -5.8685
    -4.9607  -4.7964  -4.7950  -4.7703  -4.7685  -4.7592  -4.6855  -4.6852
    -4.6850  -4.6848  -4.4870  -4.4856  -4.4851  -4.4848  -4.4549  -4.4371
    -4.3973  -4.2903  -4.2000  -4.1998  -4.1993  -4.1991  -4.0500  -4.0497
    -3.9086  -3.9081  -3.9070  -3.9068  -3.8918  -3.8916  -3.6288  -3.6236
    -3.6223  -3.6219  -3.6215  -3.5818  -3.5804  -3.5485  -3.5482  -3.4473
    -3.4464  -3.4018  -3.4018  -3.3755  -3.3627  -3.3619  -3.3616  -3.3610
    -3.2810  -3.2797  -3.2692  -3.2688  -3.2345  -3.2340  -3.1754  -3.1753
    -3.1745  -3.1742  -3.0611  -3.0596  -2.9751  -2.9746  -2.9725  -2.9516
    -2.9504  -2.9498  -2.9489  -2.9413  -2.9389  -2.8611  -2.8607  -2.8438
    -2.8427  -2.8162  -2.8156  -2.6959  -2.6713  -2.6694  -2.6678  -2.6673
    -2.6201  -2.6178  -2.5688  -2.5672  -2.5442  -2.5437  -2.5164  -2.5163
    -2.5143  -2.5139  -2.4738  -2.4717  -2.4035  -2.4026  -2.4019  -2.4018
    -2.3841  -2.3835  -2.3393  -2.2975  -2.2972  -2.2886  -2.2877  -2.2730
    -2.2215  -2.2208  -2.2199  -2.2197  -2.1198  -2.1143  -2.0966  -2.0956
    -2.0951  -2.0948  -2.0551  -2.0519  -1.9973  -1.9968  -1.9614  -1.9605
    -1.9508  -1.8706  -1.8687  -1.8650  -1.8648  -1.8634  -1.8617  -1.8611
    -1.8605  -1.8604  -1.8578  -1.7806  -1.7790  -1.7788  -1.7779  -1.6159
    -1.5417  -1.4711  -1.4705  -0.6135  -0.6001  -0.0225  -0.0222  -0.0219
    -0.0218   0.1403   0.7803   0.7814   1.2201   1.2207   1.2242   1.2254
     1.2796   1.4295   1.4597   1.7222   3.4350   3.4568   3.4623   3.4668
     3.6109   3.6216   3.9293   4.3130   4.3264   4.5267   4.7122   4.8631
     4.9658   5.5584   5.5877   5.5885   5.5935   5.5976   5.6016   5.8291
     5.9050   5.9670   5.9836   6.1123   6.2499   6.2543   6.6137   6.6270
     6.6560   6.7877   6.8077   6.8392   6.8614   7.1549   7.1929   7.3051
     7.3166   7.3756   7.4137   7.4922   7.5119   7.5468

     occupation numbers 
     1.0000   1.0000   1.0000   1.0000   1.0000   1.0000   1.0000   1.0000
     1.0000   1.0000   1.0000   1.0000   1.0000   1.0000   1.0000   1.0000
     1.0000   1.0000   1.0000   1.0000   1.0000   1.0000   1.0000   1.0000
     1.0000   1.0000   1.0000   1.0000   1.0000   1.0000   1.0000   1.0000
     1.0000   1.0000   1.0000   1.0000   1.0000   1.0000   1.0000   1.0000
     1.0000   1.0000   1.0000   1.0000   1.0000   1.0000   1.0000   1.0000
     1.0000   1.0000   1.0000   1.0000   1.0000   1.0000   1.0000   1.0000
     1.0000   1.0000   1.0000   1.0000   1.0000   1.0000   1.0000   1.0000
     1.0000   1.0000   1.0000   1.0000   1.0000   1.0000   1.0000   1.0000
     1.0000   1.0000   1.0000   1.0000   1.0000   1.0000   1.0000   1.0000
     1.0000   1.0000   1.0000   1.0000   1.0000   1.0000   1.0000   1.0000
     1.0000   1.0000   1.0000   1.0000   1.0000   1.0000   1.0000   1.0000
     1.0000   1.0000   1.0000   1.0000   1.0000   1.0000   1.0000   1.0000
     1.0000   1.0000   1.0000   1.0000   1.0000   1.0000   1.0000   1.0000
     1.0000   1.0000   1.0000   1.0000   1.0000   1.0000   1.0000   1.0000
     1.0000   1.0000   1.0000   1.0000   1.0000   1.0000   1.0000   1.0000
     1.0000   1.0000   1.0000   1.0000   1.0000   1.0000   1.0000   1.0000
     1.0000   1.0000   1.0000   1.0000   1.0000   1.0000   1.0000   1.0000
     1.0000   1.0000   1.0000   1.0000   1.0000   1.0000   1.0000   1.0000
     1.0000   1.0000   1.0000   1.0000   1.0000   1.0000   1.0000   1.0000
     1.0000   1.0000   1.0000   1.0000   1.0000   1.0000   1.0000   1.0000
     1.0000   1.0000   1.0000   1.0000   1.0000   1.0000   1.0000   1.0000
     1.0000   1.0000   1.0000   1.0000   1.0000   1.0000   1.0000   1.0000
     1.0000   1.0000   1.0000   1.0000   1.0000   1.0000   1.0000   1.0000
     1.0000   1.0000   1.0000   1.0000   1.0000   1.0000   1.0000   1.0000
     1.0000   1.0000   1.0000   1.0000   1.0000   1.0000   1.0000   1.0000
     1.0000   1.0000   1.0000   1.0000   1.0000   1.0000   1.0000   1.0000
     1.0000   1.0000   1.0000   1.0000   1.0000   1.0000   1.0000   1.0000
     1.0000   1.0000   1.0000   1.0000   1.0000   1.0000   1.0000   1.0000
     1.0000   1.0000   1.0000   1.0000   1.0000   1.0000   1.0000   1.0000
     1.0000   1.0000   1.0000   1.0000   1.0000   1.0000   1.0000   1.0000
     1.0000   1.0000   1.0000   1.0000   1.0000   1.0000   1.0000   1.0000
     1.0000   1.0000   1.0000   1.0000   1.0000   0.4260   0.4243   0.4229
     0.4223   0.0163   0.0000   0.0000   0.0000   0.0000   0.0000   0.0000
     0.0000   0.0000   0.0000   0.0000   0.0000   0.0000   0.0000   0.0000
     0.0000   0.0000   0.0000   0.0000   0.0000   0.0000   0.0000   0.0000
     0.0000   0.0000   0.0000   0.0000   0.0000   0.0000   0.0000   0.0000
     0.0000   0.0000   0.0000   0.0000   0.0000   0.0000   0.0000   0.0000
     0.0000   0.0000   0.0000   0.0000   0.0000   0.0000   0.0000   0.0000
     0.0000   0.0000   0.0000   0.0000   0.0000   0.0000

          k =-0.5000-0.5774 0.0000 ( 79292 PWs)   bands (ev):

  -113.1330-113.1308-113.1300-113.1265-113.1253-113.1245-113.1241-113.1231
  -113.1223-112.8457-112.8433-112.8425-112.8391-112.8379-112.8369-112.8364
  -112.8357-112.8353-112.7747-112.7644-112.7642-112.7610-112.7598-112.7574
  -112.7554-112.7548-112.7539 -70.5869 -70.5865 -70.5825 -70.5729 -70.5677
   -70.5668 -70.5386 -70.5357 -70.5347 -70.5345 -70.5263 -70.5257 -70.5249
   -70.5243 -70.5155 -70.5128 -70.5101 -70.5092 -70.5087 -70.5086 -70.5050
   -70.5037 -70.5028 -70.5027 -70.5022 -70.5011 -70.5001 -70.3069 -70.3063
   -70.3024 -70.2932 -70.2879 -70.2874 -70.2600 -70.2573 -70.2560 -70.2557
   -70.2481 -70.2473 -70.2466 -70.2462 -70.2373 -70.2316 -70.2309 -70.2307
   -70.2306 -70.2261 -70.2249 -70.2172 -70.2116 -70.2106 -70.1922 -70.1898
   -70.1890 -70.1864 -70.1850 -70.1845 -70.1843 -70.1838 -70.1830 -70.1828
   -70.1818 -70.1788 -70.1785 -70.1713 -70.1709 -70.1689 -70.1684 -70.1603
   -70.1536 -70.1530 -70.1471 -70.1174 -70.1033 -70.1030 -70.1000 -70.0989
   -70.0964 -70.0943 -70.0937 -70.0929 -24.6212 -23.6705  -9.1326  -8.1096
    -8.0865  -8.0786  -7.9576  -7.1272  -7.1269  -6.0528  -5.3712  -5.3705
    -5.2189  -5.2188  -4.8953  -4.8825  -4.8824  -4.6775  -4.6775  -4.6001
    -4.5369  -4.5254  -4.5236  -4.4856  -4.4667  -4.4415  -4.4250  -4.4187
    -4.3529  -4.3456  -4.3454  -4.2033  -4.1737  -4.1733  -4.1103  -4.1094
    -4.0981  -3.9560  -3.8600  -3.8380  -3.8378  -3.7138  -3.7134  -3.6236
    -3.6220  -3.6211  -3.6102  -3.6088  -3.5673  -3.5669  -3.5530  -3.5249
    -3.4717  -3.4046  -3.4039  -3.3689  -3.3246  -3.3242  -3.3211  -3.3210
    -3.3065  -3.3020  -3.2367  -3.1565  -3.1557  -3.1554  -3.1552  -3.0851
    -3.0748  -3.0742  -3.0540  -3.0535  -3.0445  -3.0228  -3.0190  -3.0181
    -3.0177  -2.9904  -2.9877  -2.9720  -2.9045  -2.8843  -2.8794  -2.8518
    -2.8375  -2.8369  -2.7855  -2.7850  -2.7722  -2.7720  -2.7695  -2.7688
    -2.6831  -2.6811  -2.6291  -2.6264  -2.5347  -2.4972  -2.4949  -2.4463
    -2.4455  -2.4445  -2.4431  -2.4117  -2.4111  -2.3962  -2.3652  -2.3531
    -2.3521  -2.3475  -2.3321  -2.3320  -2.3099  -2.2975  -2.2964  -2.2521
    -2.2515  -2.2502  -2.1678  -2.1668  -2.1659  -2.1553  -2.1549  -2.1171
    -2.0495  -2.0492  -1.9817  -1.9765  -1.9577  -1.9571  -1.9396  -1.9389
    -1.9224  -1.9209  -1.9129  -1.8898  -1.8850  -1.8845  -1.8753  -1.8740
    -1.8707  -1.8466  -1.8463  -1.8114  -1.7978  -1.7972  -1.7810  -1.6996
    -1.6988  -1.2309  -1.2306  -0.7897  -0.4060  -0.4036  -0.0916  -0.0789
    -0.0202   0.0308   0.0314   1.1169   1.2002   1.2003   1.2346   1.4665
     2.0642   2.0695   2.2580   2.3094   2.3398   2.4942   2.4950   2.8958
     3.6589   3.8824   4.3138   4.3292   4.6329   4.9722   4.9922   5.0007
     5.0376   5.0572   5.2312   5.2411   5.3793   5.5382   5.5858   5.7627
     5.7948   5.8392   6.0286   6.2328   6.2361   6.4127   6.6386   6.6494
     6.7899   6.8332   6.8413   6.9389   7.1409   7.1936   7.2202   7.2656
     7.3406   7.3901   7.5289   7.5811   7.7641   7.8083

     occupation numbers 
     1.0000   1.0000   1.0000   1.0000   1.0000   1.0000   1.0000   1.0000
     1.0000   1.0000   1.0000   1.0000   1.0000   1.0000   1.0000   1.0000
     1.0000   1.0000   1.0000   1.0000   1.0000   1.0000   1.0000   1.0000
     1.0000   1.0000   1.0000   1.0000   1.0000   1.0000   1.0000   1.0000
     1.0000   1.0000   1.0000   1.0000   1.0000   1.0000   1.0000   1.0000
     1.0000   1.0000   1.0000   1.0000   1.0000   1.0000   1.0000   1.0000
     1.0000   1.0000   1.0000   1.0000   1.0000   1.0000   1.0000   1.0000
     1.0000   1.0000   1.0000   1.0000   1.0000   1.0000   1.0000   1.0000
     1.0000   1.0000   1.0000   1.0000   1.0000   1.0000   1.0000   1.0000
     1.0000   1.0000   1.0000   1.0000   1.0000   1.0000   1.0000   1.0000
     1.0000   1.0000   1.0000   1.0000   1.0000   1.0000   1.0000   1.0000
     1.0000   1.0000   1.0000   1.0000   1.0000   1.0000   1.0000   1.0000
     1.0000   1.0000   1.0000   1.0000   1.0000   1.0000   1.0000   1.0000
     1.0000   1.0000   1.0000   1.0000   1.0000   1.0000   1.0000   1.0000
     1.0000   1.0000   1.0000   1.0000   1.0000   1.0000   1.0000   1.0000
     1.0000   1.0000   1.0000   1.0000   1.0000   1.0000   1.0000   1.0000
     1.0000   1.0000   1.0000   1.0000   1.0000   1.0000   1.0000   1.0000
     1.0000   1.0000   1.0000   1.0000   1.0000   1.0000   1.0000   1.0000
     1.0000   1.0000   1.0000   1.0000   1.0000   1.0000   1.0000   1.0000
     1.0000   1.0000   1.0000   1.0000   1.0000   1.0000   1.0000   1.0000
     1.0000   1.0000   1.0000   1.0000   1.0000   1.0000   1.0000   1.0000
     1.0000   1.0000   1.0000   1.0000   1.0000   1.0000   1.0000   1.0000
     1.0000   1.0000   1.0000   1.0000   1.0000   1.0000   1.0000   1.0000
     1.0000   1.0000   1.0000   1.0000   1.0000   1.0000   1.0000   1.0000
     1.0000   1.0000   1.0000   1.0000   1.0000   1.0000   1.0000   1.0000
     1.0000   1.0000   1.0000   1.0000   1.0000   1.0000   1.0000   1.0000
     1.0000   1.0000   1.0000   1.0000   1.0000   1.0000   1.0000   1.0000
     1.0000   1.0000   1.0000   1.0000   1.0000   1.0000   1.0000   1.0000
     1.0000   1.0000   1.0000   1.0000   1.0000   1.0000   1.0000   1.0000
     1.0000   1.0000   1.0000   1.0000   1.0000   1.0000   1.0000   1.0000
     1.0000   1.0000   1.0000   1.0000   1.0000   1.0000   1.0000   1.0000
     1.0000   1.0000   1.0000   1.0000   1.0000   1.0000   1.0000   1.0000
     1.0000   1.0000   1.0000   1.0000   1.0028   1.0030   0.7974   0.7322
     0.4140   0.1956   0.1935   0.0000   0.0000   0.0000   0.0000   0.0000
     0.0000   0.0000   0.0000   0.0000   0.0000   0.0000   0.0000   0.0000
     0.0000   0.0000   0.0000   0.0000   0.0000   0.0000   0.0000   0.0000
     0.0000   0.0000   0.0000   0.0000   0.0000   0.0000   0.0000   0.0000
     0.0000   0.0000   0.0000   0.0000   0.0000   0.0000   0.0000   0.0000
     0.0000   0.0000   0.0000   0.0000   0.0000   0.0000   0.0000   0.0000
     0.0000   0.0000   0.0000   0.0000   0.0000   0.0000

     the Fermi energy is    -0.0175 ev

!    total energy              =   -9968.35004278 Ry
     estimated scf accuracy    <          1.6E-09 Ry
     smearing contrib. (-TS)   =      -0.00756752 Ry
     internal energy E=F+TS    =   -9968.34247526 Ry

     The total energy is F=E-TS. E is the sum of the following terms:
     one-electron contribution = -119807.41527125 Ry
     hartree contribution      =   59867.28988966 Ry
     xc contribution           =    -996.13937619 Ry
     ewald contribution        =   50967.92228252 Ry

     convergence has been achieved in  25 iterations

     Forces acting on atoms (cartesian axes, Ry/au):

[...]
     atom   28 type  2   force =     0.00000000    0.00000154    0.00214112
     atom   29 type  3   force =     0.00241644   -0.00003632    0.00092858
     atom   30 type  3   force =    -0.00241644   -0.00003632    0.00092858
     The non-local contrib.  to forces
     atom    1 type  1   force =    -0.00018217    0.00005231   -0.09985323
     atom    2 type  1   force =     0.00000000   -0.00074509   -0.10290431
     atom    3 type  1   force =     0.00018217    0.00005231   -0.09985323
     atom    4 type  1   force =     0.00009350   -0.00050089   -0.09935557
     atom    5 type  1   force =    -0.00009350   -0.00050089   -0.09935557
     atom    6 type  1   force =     0.00000000    0.00023380   -0.09876204
     atom    7 type  1   force =     0.00000000    0.00051592   -0.09940141
     atom    8 type  1   force =     0.00148668    0.00045955   -0.10079029
     atom    9 type  1   force =    -0.00148668    0.00045955   -0.10079029
     atom   10 type  1   force =     0.00000000    0.00013134    0.00895813
     atom   11 type  1   force =     0.00118336   -0.00094066    0.00824936
     atom   12 type  1   force =    -0.00118336   -0.00094066    0.00824936
     atom   13 type  1   force =    -0.00042425    0.00042487    0.00761572
     atom   14 type  1   force =     0.00000000   -0.00008089    0.00818967
     atom   15 type  1   force =     0.00042425    0.00042487    0.00761572
     atom   16 type  1   force =    -0.00054098    0.00005429    0.00841795
     atom   17 type  1   force =     0.00054098    0.00005429    0.00841795
     atom   18 type  1   force =     0.00000000    0.00087826    0.00975224
     atom   19 type  1   force =     0.00000000   -0.00004993    0.09424854
     atom   20 type  1   force =    -0.00180843    0.00000805    0.10106231
     atom   21 type  1   force =     0.00180843    0.00000805    0.10106231
     atom   22 type  1   force =     0.00237758    0.00041103    0.08928728
     atom   23 type  1   force =     0.00000000   -0.00039083    0.09250872
     atom   24 type  1   force =    -0.00237758    0.00041103    0.08928728
     atom   25 type  1   force =    -0.00224895   -0.00045330    0.08929238
     atom   26 type  1   force =     0.00224895   -0.00045330    0.08929238
     atom   27 type  1   force =     0.00000000    0.00048305    0.09243913
     atom   28 type  2   force =     0.00000000    0.00000149   -0.00003586
     atom   29 type  3   force =    -3.11380582    0.00002220    0.00886441
     atom   30 type  3   force =     3.11380582    0.00002220    0.00886441
     The ionic contribution  to forces
     atom    1 type  1   force =     0.02511188    0.02008536 -373.10849065
     atom    2 type  1   force =     0.00000000    0.01124703 -373.05790042
     atom    3 type  1   force =    -0.02511188    0.02008536 -373.10849065
     atom    4 type  1   force =     0.00500957    0.00008021 -373.04336236
     atom    5 type  1   force =    -0.00500957    0.00008021 -373.04336236
     atom    6 type  1   force =    -0.00000000    0.02635721 -373.05306460
     atom    7 type  1   force =     0.00000000   -0.03755605 -373.10325178
     atom    8 type  1   force =     0.02035915   -0.02018961 -373.06273645
     atom    9 type  1   force =    -0.02035915   -0.02018961 -373.06273645
     atom   10 type  1   force =     0.00000000    0.26978585  -12.76579170
     atom   11 type  1   force =     0.15234425    0.14801468  -12.47349096
     atom   12 type  1   force =    -0.15234425    0.14801468  -12.47349096
     atom   13 type  1   force =    -0.03323661   -0.00270327  -12.34127013
     atom   14 type  1   force =     0.00000000   -0.19404615  -12.40221720
     atom   15 type  1   force =     0.03323661   -0.00270327  -12.34127013
     atom   16 type  1   force =    -0.17835880   -0.14495414  -12.80733928
     atom   17 type  1   force =     0.17835880   -0.14495414  -12.80733928
     atom   18 type  1   force =    -0.00000000   -0.07649868  -12.44269787
     atom   19 type  1   force =    -0.00000000   -0.00000064  341.39006827
     atom   20 type  1   force =     1.60731638   -0.00666752  344.66497239
     atom   21 type  1   force =    -1.60731638   -0.00666752  344.66497239
     atom   22 type  1   force =     0.68221618    1.69749786  345.45623623
     atom   23 type  1   force =     0.00000000    0.38085946  346.79609230
     atom   24 type  1   force =    -0.68221619    1.69749786  345.45623623
     atom   25 type  1   force =    -0.69380572   -1.69078774  345.45626276
     atom   26 type  1   force =     0.69380572   -1.69078774  345.45626276
     atom   27 type  1   force =    -0.00000000   -0.38071763  346.75250218
     atom   28 type  2   force =    -0.00000000   -0.00000001   91.11357865
     atom   29 type  3   force =    12.86941653   -0.00009104  136.64555952
     atom   30 type  3   force =   -12.86941653   -0.00009104  136.64555952
     The local contribution  to forces
     atom    1 type  1   force =    -0.02495603   -0.02013534  373.19139266
     atom    2 type  1   force =     0.00000002   -0.01044974  373.14390615
     atom    3 type  1   force =     0.02495606   -0.02013534  373.19139266
     atom    4 type  1   force =    -0.00512488    0.00045145  373.12571768
     atom    5 type  1   force =     0.00512485    0.00045145  373.12571768
     atom    6 type  1   force =    -0.00000003   -0.02659603  373.13480448
     atom    7 type  1   force =     0.00000002    0.03703864  373.18564407
     atom    8 type  1   force =    -0.02191657    0.01967943  373.14656902
     atom    9 type  1   force =     0.02191658    0.01967943  373.14656902
     atom   10 type  1   force =     0.00000000   -0.26989528   12.77349044
     atom   11 type  1   force =    -0.15356787   -0.14704461   12.48208692
     atom   12 type  1   force =     0.15356784   -0.14704461   12.48208692
     atom   13 type  1   force =     0.03368722    0.00228657   12.35033564
     atom   14 type  1   force =     0.00000002    0.19406621   12.41062766
     atom   15 type  1   force =    -0.03368719    0.00228657   12.35033564
     atom   16 type  1   force =     0.17882297    0.14489594   12.81558098
     atom   17 type  1   force =    -0.17882299    0.14489594   12.81558098
     atom   18 type  1   force =    -0.00000003    0.07556894   12.44997334
     atom   19 type  1   force =    -0.00000000    0.00007555 -341.48977318
     atom   20 type  1   force =    -1.60557861    0.00662814 -344.76741682
     atom   21 type  1   force =     1.60557865    0.00662814 -344.76741682
     atom   22 type  1   force =    -0.68489858   -1.69782593 -345.54700580
     atom   23 type  1   force =     0.00000002   -0.38019940 -346.88994353
     atom   24 type  1   force =     0.68489855   -1.69782593 -345.54700580
     atom   25 type  1   force =     0.69630985    1.69116160 -345.54704595
     atom   26 type  1   force =    -0.69630987    1.69116160 -345.54704595
     atom   27 type  1   force =    -0.00000003    0.37999271 -346.84628201
     atom   28 type  2   force =    -0.00000000   -0.00000346  -91.11198032
     atom   29 type  3   force =    -9.75312969    0.00007763 -136.65403200
     atom   30 type  3   force =     9.75312969    0.00007763 -136.65403200
     The core correction contribution to forces
     atom    1 type  1   force =     0.00000000    0.00000000    0.00000000
     atom    2 type  1   force =     0.00000000    0.00000000    0.00000000
     atom    3 type  1   force =     0.00000000    0.00000000    0.00000000
     atom    4 type  1   force =     0.00000000    0.00000000    0.00000000
     atom    5 type  1   force =     0.00000000    0.00000000    0.00000000
     atom    6 type  1   force =     0.00000000    0.00000000    0.00000000
     atom    7 type  1   force =     0.00000000    0.00000000    0.00000000
     atom    8 type  1   force =     0.00000000    0.00000000    0.00000000
     atom    9 type  1   force =     0.00000000    0.00000000    0.00000000
     atom   10 type  1   force =     0.00000000    0.00000000    0.00000000
     atom   11 type  1   force =     0.00000000    0.00000000    0.00000000
     atom   12 type  1   force =     0.00000000    0.00000000    0.00000000
     atom   13 type  1   force =     0.00000000    0.00000000    0.00000000
     atom   14 type  1   force =     0.00000000    0.00000000    0.00000000
     atom   15 type  1   force =     0.00000000    0.00000000    0.00000000
     atom   16 type  1   force =     0.00000000    0.00000000    0.00000000
     atom   17 type  1   force =     0.00000000    0.00000000    0.00000000
     atom   18 type  1   force =     0.00000000    0.00000000    0.00000000
     atom   19 type  1   force =     0.00000000    0.00000000    0.00000000
     atom   20 type  1   force =     0.00000000    0.00000000    0.00000000
     atom   21 type  1   force =     0.00000000    0.00000000    0.00000000
     atom   22 type  1   force =     0.00000000    0.00000000    0.00000000
     atom   23 type  1   force =     0.00000000    0.00000000    0.00000000
     atom   24 type  1   force =     0.00000000    0.00000000    0.00000000
     atom   25 type  1   force =     0.00000000    0.00000000    0.00000000
     atom   26 type  1   force =     0.00000000    0.00000000    0.00000000
     atom   27 type  1   force =     0.00000000    0.00000000    0.00000000
     atom   28 type  2   force =     0.00000000    0.00000000    0.00000000
     atom   29 type  3   force =     0.00000000    0.00000000    0.00000000
     atom   30 type  3   force =     0.00000000    0.00000000    0.00000000
     The Hubbard contrib.    to forces
     atom    1 type  1   force =     0.00000000    0.00000000    0.00000000
     atom    2 type  1   force =     0.00000000    0.00000000    0.00000000
     atom    3 type  1   force =     0.00000000    0.00000000    0.00000000
     atom    4 type  1   force =     0.00000000    0.00000000    0.00000000
     atom    5 type  1   force =     0.00000000    0.00000000    0.00000000
     atom    6 type  1   force =     0.00000000    0.00000000    0.00000000
     atom    7 type  1   force =     0.00000000    0.00000000    0.00000000
     atom    8 type  1   force =     0.00000000    0.00000000    0.00000000
     atom    9 type  1   force =     0.00000000    0.00000000    0.00000000
     atom   10 type  1   force =     0.00000000    0.00000000    0.00000000
     atom   11 type  1   force =     0.00000000    0.00000000    0.00000000
     atom   12 type  1   force =     0.00000000    0.00000000    0.00000000
     atom   13 type  1   force =     0.00000000    0.00000000    0.00000000
     atom   14 type  1   force =     0.00000000    0.00000000    0.00000000
     atom   15 type  1   force =     0.00000000    0.00000000    0.00000000
     atom   16 type  1   force =     0.00000000    0.00000000    0.00000000
     atom   17 type  1   force =     0.00000000    0.00000000    0.00000000
     atom   18 type  1   force =     0.00000000    0.00000000    0.00000000
     atom   19 type  1   force =     0.00000000    0.00000000    0.00000000
     atom   20 type  1   force =     0.00000000    0.00000000    0.00000000
     atom   21 type  1   force =     0.00000000    0.00000000    0.00000000
     atom   22 type  1   force =     0.00000000    0.00000000    0.00000000
     atom   23 type  1   force =     0.00000000    0.00000000    0.00000000
     atom   24 type  1   force =     0.00000000    0.00000000    0.00000000
     atom   25 type  1   force =     0.00000000    0.00000000    0.00000000
     atom   26 type  1   force =     0.00000000    0.00000000    0.00000000
     atom   27 type  1   force =     0.00000000    0.00000000    0.00000000
     atom   28 type  2   force =     0.00000000    0.00000000    0.00000000
     atom   29 type  3   force =     0.00000000    0.00000000    0.00000000
     atom   30 type  3   force =     0.00000000    0.00000000    0.00000000
     The SCF correction term to forces
     atom    1 type  1   force =     0.00000000   -0.00000000    0.00000000
     atom    2 type  1   force =     0.00000000    0.00000000   -0.00000000
     atom    3 type  1   force =    -0.00000000   -0.00000000    0.00000000
     atom    4 type  1   force =     0.00000000    0.00000000   -0.00000000
     atom    5 type  1   force =    -0.00000000    0.00000000   -0.00000000
     atom    6 type  1   force =     0.00000000   -0.00000000   -0.00000000
     atom    7 type  1   force =    -0.00000000    0.00000000   -0.00000000
     atom    8 type  1   force =    -0.00000000   -0.00000000   -0.00000000
     atom    9 type  1   force =     0.00000000   -0.00000000   -0.00000000
     atom   10 type  1   force =     0.00000000   -0.00000000    0.00000000
     atom   11 type  1   force =     0.00000000   -0.00000000    0.00000000
     atom   12 type  1   force =    -0.00000000   -0.00000000    0.00000000
     atom   13 type  1   force =     0.00000000    0.00000000    0.00000000
     atom   14 type  1   force =     0.00000000   -0.00000000    0.00000000
     atom   15 type  1   force =    -0.00000000    0.00000000    0.00000000
     atom   16 type  1   force =     0.00000000   -0.00000000   -0.00000000
     atom   17 type  1   force =    -0.00000000   -0.00000000   -0.00000000
     atom   18 type  1   force =     0.00000000   -0.00000000    0.00000000
     atom   19 type  1   force =     0.00000018   -0.00002269   -0.00012033
     atom   20 type  1   force =     0.00000310   -0.00002216   -0.00008896
     atom   21 type  1   force =    -0.00000362   -0.00002212   -0.00008947
     atom   22 type  1   force =     0.00002407    0.00001241   -0.00007505
     atom   23 type  1   force =    -0.00000013    0.00002131   -0.00007648
     atom   24 type  1   force =    -0.00002448    0.00001243   -0.00007554
     atom   25 type  1   force =    -0.00000144    0.00001800   -0.00001730
     atom   26 type  1   force =     0.00000038    0.00001897   -0.00001467
     atom   27 type  1   force =     0.00000012    0.00001785   -0.00008091
     atom   28 type  2   force =     0.00000001    0.00000108   -0.00000110
     atom   29 type  3   force =    -0.00006503   -0.00004740   -0.00004219
     atom   30 type  3   force =     0.00006411   -0.00004773   -0.00004398

     Total force =     0.007075     Total SCF correction =     0.000275


     Computing stress (Cartesian axis) and pressure

          total   stress  (Ry/bohr**3)                   (kbar)     P=     -292.25
  -0.00196965   0.00000000   0.00000000         -289.75        0.00        0.00
   0.00000000  -0.00197286   0.00000001            0.00     -290.22        0.00
   0.00000000   0.00000001  -0.00201744            0.00        0.00     -296.78

     kinetic stress (kbar)  44268.09     -0.00      0.00
                               -0.00  44355.85     -0.00
                                0.00     -0.00  44535.81

     local   stress (kbar)**********      0.00      0.00
                                0.00**********      0.03
                                0.00      0.031676143.75

     nonloc. stress (kbar) -32891.22      0.00      0.00
                                0.00 -32897.96      0.00
                                0.00      0.00 -33006.82

     hartree stress (kbar) 842946.90      0.00     -0.00
                                0.00 842532.34     -0.01
                               -0.00     -0.01-813659.69

     exc-cor stress (kbar)  -4624.05      0.00     -0.00
                                0.00  -4628.75     -0.00
                               -0.00     -0.00  -4639.87

     corecor stress (kbar)      0.00      0.00      0.00
                                0.00      0.00      0.00
                                0.00      0.00      0.00

     ewald   stress (kbar) 806405.62     -0.00     -0.00
                               -0.00 805530.23     -0.01
                               -0.00     -0.01-869713.67

     hubbard stress (kbar)      0.00      0.00      0.00
                                0.00      0.00      0.00
                                0.00      0.00      0.00

     DFT-D   stress (kbar)      0.00      0.00      0.00
                                0.00      0.00      0.00
                                0.00      0.00      0.00

     XDM     stress (kbar)      0.00      0.00      0.00
                                0.00      0.00      0.00
                                0.00      0.00      0.00

     dft-nl  stress (kbar)     36.73     -0.00      0.00
                               -0.00     37.43      0.00
                                0.00      0.00     43.72

     TS-vdW  stress (kbar)      0.00      0.00      0.00
                                0.00      0.00      0.00
                                0.00      0.00      0.00

     MDB     stress (kbar)      0.00      0.00      0.00
                                0.00      0.00      0.00
                                0.00      0.00      0.00

     3D-RISM stress (kbar)      0.00      0.00      0.00
                                0.00      0.00      0.00
                                0.00      0.00      0.00


     Writing all to output data dir ./Cu_CO2.save/

     init_run     :    158.69s CPU    131.15s WALL (       1 calls)
     electrons    :  16097.32s CPU  11903.27s WALL (       1 calls)
     forces       :     65.34s CPU     35.53s WALL (       1 calls)
     stress       :    497.01s CPU    408.39s WALL (       1 calls)

     Called by init_run:
     wfcinit      :    127.42s CPU     99.59s WALL (       1 calls)
     wfcinit:wfcr :    122.95s CPU     94.37s WALL (       7 calls)
     potinit      :     30.80s CPU     31.06s WALL (       1 calls)
     hinit0       :      0.31s CPU      0.32s WALL (       1 calls)

     Called by electrons:
     c_bands      :  13791.57s CPU   9705.03s WALL (      26 calls)
     sum_band     :    994.51s CPU   1003.80s WALL (      26 calls)
     v_of_rho     :    111.18s CPU    117.23s WALL (      26 calls)
     v_h          :      0.97s CPU      1.00s WALL (      26 calls)
     v_xc         :    110.22s CPU    116.22s WALL (      26 calls)
     mix_rho      :   1230.06s CPU   1107.28s WALL (      26 calls)
     vdW_kernel   :     27.49s CPU     27.49s WALL (       1 calls)

     Called by c_bands:
     init_us_2    :     38.12s CPU     37.55s WALL (     385 calls)
     init_us_2:cp :     38.11s CPU     37.55s WALL (     385 calls)
     cegterg      :  13665.46s CPU   9581.97s WALL (     182 calls)

     Called by sum_band:
     sum_band:wei :      0.05s CPU      0.05s WALL (      26 calls)
     sum_band:loo :    992.41s CPU   1001.43s WALL (      26 calls)
     sum_band:buf :     14.01s CPU     13.96s WALL (     182 calls)
     sum_band:ini :     17.65s CPU     17.68s WALL (     182 calls)

     Called by *egterg:
     cdiaghg      :    565.64s CPU    387.67s WALL (    1999 calls)
     cegterg:over :   1928.85s CPU    977.18s WALL (    1824 calls)
     cegterg:upda :   1202.02s CPU    617.71s WALL (    1824 calls)
     cegterg:last :   1919.15s CPU    973.09s WALL (     460 calls)
     h_psi        :   7572.07s CPU   6377.79s WALL (    2013 calls)
     g_psi        :     26.25s CPU     21.46s WALL (    1824 calls)

     Called by h_psi:
     h_psi:calbec :   1243.20s CPU    627.95s WALL (    2013 calls)
     vloc_psi     :   5028.49s CPU   5066.38s WALL (    2013 calls)
     add_vuspsi   :   1269.05s CPU    638.32s WALL (    2013 calls)

     General routines
     calbec       :   1317.97s CPU    666.29s WALL (    2048 calls)
     fft          :     44.91s CPU     47.21s WALL (    1612 calls)
     ffts         :    706.34s CPU    649.29s WALL (   19792 calls)
     fftw         :   4643.46s CPU   4683.41s WALL (  398682 calls)

     Parallel routines

     PWSCF        :      4h40m CPU      3h28m WALL


   This run was terminated on:  17:26:45  12Oct2022            

=------------------------------------------------------------------------------=
   JOB DONE.
=------------------------------------------------------------------------------=
